# vtk DataFile Version 3.1 
for LSEConsole
ASCII
DATASET UNSTRUCTURED_GRID
POINTS 30 FLOAT
0	0	0
0	0	8
0.938860838	0	7.06113916
1.77966064	0	6.22033936
2.66829179	0	5.33170821
3.55691492	0	4.44308508
4.44553806	0	3.55446194
5.3341612	0	2.6658388
6.22278433	0	1.77721567
7.11141548	0	0.888584519
8	0	0
4.05411363	0	0
0	0	7.00366215
0	0	6.03727423
0	0	1.05136353
0	0	1.35834856
0	0	1.70065888
0	0	2.42436497
0	0	2.78587051
0	0	3.08887999
0	0	3.81205483
0	0	4.11307828
0	0	4.41433032
0	0	5.01682759
0	0	5.20682705
0	0	5.43734886
2.82447513	2.44814426	0
0	8	0
0	3.45457115	2.27246185
2.48899446	2.91050081	2.60050473
CELLS 56 224
3 3 2 12 
3 3 25 24 
3 5 4 23 
3 5 22 21 
3 7 6 20 
3 7 19 18 
3 9 8 17 
3 9 16 15 
3 11 10 14 
3 1 12 2 
3 3 12 13 
3 14 0 11 
3 14 10 15 
3 9 15 10 
3 17 16 9 
3 17 8 18 
3 7 18 8 
3 20 6 21 
3 20 19 7 
3 5 21 6 
3 23 22 5 
3 23 4 24 
3 3 24 4 
3 13 25 3 
3 26 0 27 
3 26 27 10 
3 26 10 11 
3 26 11 0 
3 28 27 0 
3 28 0 14 
3 28 14 15 
3 28 15 16 
3 28 16 17 
3 28 17 18 
3 28 18 19 
3 28 19 20 
3 28 20 21 
3 28 21 22 
3 28 22 23 
3 28 23 24 
3 28 24 25 
3 28 25 13 
3 28 13 12 
3 28 12 1 
3 28 1 27 
3 29 27 1 
3 29 1 2 
3 29 2 3 
3 29 3 4 
3 29 4 5 
3 29 5 6 
3 29 6 7 
3 29 7 8 
3 29 8 9 
3 29 9 10 
3 29 10 27 
CELL_TYPES 56
5
5
5
5
5
5
5
5
5
5
5
5
5
5
5
5
5
5
5
5
5
5
5
5
5
5
5
5
5
5
5
5
5
5
5
5
5
5
5
5
5
5
5
5
5
5
5
5
5
5
5
5
5
5
5
5
CELL_DATA 56
SCALARS patches float
LOOKUP_TABLE default
0
0
0
0
0
0
0
0
0
0
0
0
0
0
0
0
0
0
0
0
0
0
0
0
1
1
1
1
2
2
2
2
2
2
2
2
2
2
2
2
2
2
2
2
2
3
3
3
3
3
3
3
3
3
3
3
