# vtk DataFile Version 3.1 
for LSEConsole
ASCII
DATASET UNSTRUCTURED_GRID
POINTS 30 FLOAT
19.4522	-4.48813	29.7045
39.3299	-4.58355	16.3523
37.3396	-4.86032	16.3523
35.5406	-4.90564	16.3523
33.6425	-5.02651	16.3523
31.741	-5.06683	16.3523
29.8395	-5.10715	16.3523
27.938	-5.06683	16.3523
26.0365	-5.02651	16.3523
24.1384	-4.90564	16.3523
22.2404	-4.78477	16.3523
21.2947	-4.68416	23.0284
37.522	-4.72951	18.8996
35.2193	-4.88071	20.8679
21.7676	-4.73446	27.3664
22.2404	-4.78477	26.5284
23.1894	-4.8452	26.0284
24.8764	-4.97952	24.5134
25.8958	-5.03548	24.0184
26.8466	-5.05563	24.0184
28.8888	-5.08699	23.0284
29.828	-5.07051	22.9272
30.7679	-5.05402	22.8258
32.6477	-5.02104	22.6232
33.2405	-5.01064	22.5593
33.7898	-4.97457	22.0898
22.838	-3.51134	22.3707
26.8213	-1.26111	21.0553
28.5345	-3.44426	22.3707
29.4639	-3.54314	17.9199
CELLS 56 224
3 3 2 12 
3 3 25 24 
3 5 4 23 
3 5 22 21 
3 7 6 20 
3 7 19 18 
3 9 8 17 
3 9 16 15 
3 11 10 14 
3 1 12 2 
3 3 12 13 
3 14 0 11 
3 14 10 15 
3 9 15 10 
3 17 16 9 
3 17 8 18 
3 7 18 8 
3 20 6 21 
3 20 19 7 
3 5 21 6 
3 23 22 5 
3 23 4 24 
3 3 24 4 
3 13 25 3 
3 26 0 27 
3 26 27 10 
3 26 10 11 
3 26 11 0 
3 28 27 0 
3 28 0 14 
3 28 14 15 
3 28 15 16 
3 28 16 17 
3 28 17 18 
3 28 18 19 
3 28 19 20 
3 28 20 21 
3 28 21 22 
3 28 22 23 
3 28 23 24 
3 28 24 25 
3 28 25 13 
3 28 13 12 
3 28 12 1 
3 28 1 27 
3 29 27 1 
3 29 1 2 
3 29 2 3 
3 29 3 4 
3 29 4 5 
3 29 5 6 
3 29 6 7 
3 29 7 8 
3 29 8 9 
3 29 9 10 
3 29 10 27 
CELL_TYPES 56
5
5
5
5
5
5
5
5
5
5
5
5
5
5
5
5
5
5
5
5
5
5
5
5
5
5
5
5
5
5
5
5
5
5
5
5
5
5
5
5
5
5
5
5
5
5
5
5
5
5
5
5
5
5
5
5
CELL_DATA 56
SCALARS patches float
LOOKUP_TABLE default
0
0
0
0
0
0
0
0
0
0
0
0
0
0
0
0
0
0
0
0
0
0
0
0
1
1
1
1
2
2
2
2
2
2
2
2
2
2
2
2
2
2
2
2
2
3
3
3
3
3
3
3
3
3
3
3
