# vtk DataFile Version 3.1 
for LSEConsole
ASCII
DATASET UNSTRUCTURED_GRID
POINTS 53 FLOAT
8	0	8
3.72147902	4.27852098	8
6.9428333	1.0571667	8
5.3252357	0	8
0	0	8
0	8	8
0	6.2434589	8
3.27385017	0	8
0	1.56224772	8
0	8	3.1041319
0	4.41199652	3.08133672
0	6.1876395	5.12018757
0	2.76596249	4.34470237
0	0.842479309	5.25801744
0	6.3531308	0
0	8	0
0	4.66021278	0
0	3.27415084	0
0	1.65727394	0
0	0	2.3704829
0	1.42922235	4.46441762
4.79940133	2.00490944	0
5.34448088	0	0
3.50608637	0	0
0	0	0
1.50801555	0	0
0	4.34377632	8
6.79027896	0	8
0	0.60307723	5.66136019
0	1.20416861	5.95504722
0	0	5.07025748
0	1.79888959	6.10194836
0	2.32750509	6.54370599
0	3.50557114	0.900315498
0	3.94689156	0
0	2.91323786	1.50794088
0	2.20205845	1.90196389
0	1.44172313	2.46062638
0	0	4.31373329
0	0.699912958	3.32242379
4.28763973	3.71236027	0
5.35405776	2.64594224	0
2.48339361	2.54741122	0
4.53095959	1.54463321	0
6.25493791	1.74506209	0
7.15371672	0	0
3.44827533	1.53128351	8
1.95056754	1.89178396	8
0	2.72727409	8
1.95761854	6.04238146	0
8	0	0
4.10164399	0	3.92702183
4.03682345	3.96317655	3.9278499
CELLS 102 408
3 1 5 6 
3 4 7 8 
3 26 2 1 
3 26 1 6 
3 26 27 0 
3 26 0 2 
3 7 48 8 
3 3 47 7 
3 46 3 27 
3 26 46 27 
3 47 26 48 
3 7 47 48 
3 46 26 47 
3 3 46 47 
3 8 28 4 
3 5 9 11 
3 5 11 6 
3 20 32 12 
3 13 31 20 
3 9 15 14 
3 9 14 11 
3 10 11 14 
3 10 14 16 
3 16 33 10 
3 10 35 12 
3 18 35 17 
3 12 37 20 
3 20 38 13 
3 18 24 19 
3 19 37 18 
3 26 6 11 
3 26 11 10 
3 26 10 12 
3 12 48 26 
3 29 13 28 
3 8 29 28 
3 28 13 30 
3 4 28 30 
3 31 8 32 
3 20 31 32 
3 29 8 31 
3 13 29 31 
3 34 17 33 
3 16 34 33 
3 33 17 35 
3 10 33 35 
3 36 12 35 
3 18 36 35 
3 36 18 37 
3 12 36 37 
3 39 19 38 
3 20 39 38 
3 13 38 30 
3 39 20 37 
3 19 39 37 
3 32 8 48 
3 12 32 48 
3 14 15 49 
3 14 41 21 
3 14 21 16 
3 21 42 16 
3 17 42 22 
3 17 22 23 
3 17 23 18 
3 18 23 25 
3 18 25 24 
3 14 40 41 
3 43 22 42 
3 21 43 42 
3 34 16 42 
3 17 34 42 
3 44 21 41 
3 45 21 44 
3 43 21 45 
3 22 43 45 
3 49 40 14 
3 50 45 44 
3 51 24 25 
3 51 25 23 
3 51 23 22 
3 51 22 45 
3 51 45 50 
3 51 50 0 
3 51 0 27 
3 51 27 3 
3 51 3 7 
3 51 7 4 
3 51 4 30 
3 51 30 38 
3 51 38 19 
3 51 19 24 
3 52 50 44 
3 52 44 41 
3 52 41 40 
3 52 40 49 
3 52 49 15 
3 52 15 9 
3 52 9 5 
3 52 5 1 
3 52 1 2 
3 52 2 0 
3 52 0 50 
CELL_TYPES 102
5
5
5
5
5
5
5
5
5
5
5
5
5
5
5
5
5
5
5
5
5
5
5
5
5
5
5
5
5
5
5
5
5
5
5
5
5
5
5
5
5
5
5
5
5
5
5
5
5
5
5
5
5
5
5
5
5
5
5
5
5
5
5
5
5
5
5
5
5
5
5
5
5
5
5
5
5
5
5
5
5
5
5
5
5
5
5
5
5
5
5
5
5
5
5
5
5
5
5
5
5
5
CELL_DATA 102
SCALARS patches float
LOOKUP_TABLE default
0
0
0
0
0
0
0
0
0
0
0
0
0
0
1
1
1
1
1
1
1
1
1
1
1
1
1
1
1
1
1
1
1
1
1
1
1
1
1
1
1
1
1
1
1
1
1
1
1
1
1
1
1
1
1
1
1
2
2
2
2
2
2
2
2
2
2
2
2
2
2
2
2
2
2
2
2
3
3
3
3
3
3
3
3
3
3
3
3
3
3
4
4
4
4
4
4
4
4
4
4
4
