# vtk DataFile Version 3.1 
for LSEConsole
ASCII
DATASET UNSTRUCTURED_GRID
POINTS 36 FLOAT
8	0	8
5.21700564	0	8
5.89895536	2.10104464	8
0	3.98732479	8
0	0	0
0	3.04257947	2.39546126
0	5.74958028	8
3.08519362	4.91480638	8
0	3.05260421	0
0	8	8
0	8	0
0	8	3.59523746
0	0	8
0	5.44063775	0
2.80905137	2.63771082	8
3.37855401	3.06336758	8
1.41590204	2.71406847	8
5.04518318	2.95481682	8
4.16658789	3.02011895	8
0	2.87727273	8
0	2.24326029	5.78812214
0	3.14617868	5.32923356
0	0	4.66288686
0	1.02328557	5.15494823
0	3.87564106	2.34789414
0	4.49199037	0
8	0	0
2.53181587	2.37224713	0
3.48389025	4.51610975	0
5.02189662	2.97810338	0
6.66730597	1.33269403	0
6.39290557	0	0
5.56744387	0	0
4.02305513	0	0
4.03204126	0	4.00032035
4.05695483	3.94304517	4.34311626
CELLS 68 272
3 2 14 0 
3 0 16 1 
3 6 17 7 
3 3 18 6 
3 6 7 9 
3 1 19 12 
3 15 3 14 
3 2 15 14 
3 14 3 16 
3 0 14 16 
3 18 2 17 
3 6 18 17 
3 15 2 18 
3 3 15 18 
3 16 3 19 
3 1 16 19 
3 4 8 33 
3 8 27 31 
3 13 29 30 
3 13 10 28 
3 13 28 29 
3 25 13 26 
3 8 25 27 
3 27 25 26 
3 27 26 31 
3 30 26 13 
3 8 31 32 
3 32 33 8 
3 6 9 11 
3 19 21 20 
3 8 20 5 
3 4 23 8 
3 13 21 3 
3 13 3 6 
3 13 6 11 
3 13 11 10 
3 5 25 8 
3 12 19 20 
3 19 3 21 
3 20 21 5 
3 23 12 20 
3 8 23 20 
3 22 12 23 
3 4 22 23 
3 24 5 21 
3 13 24 21 
3 24 13 25 
3 5 24 25 
3 34 4 33 
3 34 33 32 
3 34 32 31 
3 34 31 26 
3 34 26 0 
3 34 0 1 
3 34 1 12 
3 34 12 22 
3 34 22 4 
3 35 26 30 
3 35 30 29 
3 35 29 28 
3 35 28 10 
3 35 10 11 
3 35 11 9 
3 35 9 7 
3 35 7 17 
3 35 17 2 
3 35 2 0 
3 35 0 26 
CELL_TYPES 68
5
5
5
5
5
5
5
5
5
5
5
5
5
5
5
5
5
5
5
5
5
5
5
5
5
5
5
5
5
5
5
5
5
5
5
5
5
5
5
5
5
5
5
5
5
5
5
5
5
5
5
5
5
5
5
5
5
5
5
5
5
5
5
5
5
5
5
5
CELL_DATA 68
SCALARS patches float
LOOKUP_TABLE default
0
0
0
0
0
0
0
0
0
0
0
0
0
0
0
0
1
1
1
1
1
1
1
1
1
1
1
1
2
2
2
2
2
2
2
2
2
2
2
2
2
2
2
2
2
2
2
2
3
3
3
3
3
3
3
3
3
4
4
4
4
4
4
4
4
4
4
4
