# vtk DataFile Version 3.1 
for LSEConsole
ASCII
DATASET UNSTRUCTURED_GRID
POINTS 55 FLOAT
8	0	8
4.38539687	2.1837362	8
5.3166827	2.6833173	8
2.80051529	5.19948471	8
5.2463603	0	8
1.91968918	3.50088112	8
3.40475765	0	8
1.32155284	2.31055625	8
1.90027843	0	8
8	0	5.41748255
6.07400691	0	6.08643971
0	5.73713472	8
0	8	8
4.39300229	0	4.25024595
4.33726327	0	6.52149632
0	3.6758224	8
1.94687615	0	5.12611013
0	0	8
2.56362994	0	6.44020131
0	2.0984354	8
8	0	3.30099706
6.5473856	0	4.28597816
0	8	5.1367817
4.42068364	0	1.76078978
0	5.8602062	4.72743548
0	4.56024043	5.47579507
0	4.31887942	2.54662649
0	0	0
0	1.82429518	0
0	2.40582896	2.98473422
8	0	1.50369351
6.19946494	0	2.47588166
5.56440229	0	0
3.15679304	0	0
0	6.2239259	0
0	6.45680266	2.90420438
0	8	2.40992015
1.63604916	1.05251576	0
1.81319545	0	0
1.00188882	3.212193	0
0	3.93279331	0
8	0	0
4.12696267	2.12172873	0
2.96373306	3.70358182	0
3.31127664	1.14103356	0
2.00313217	5.99686783	0
1.70189475	4.30933793	0
0	8	0
6.24251804	1.75748196	0
4.47924787	3.52075213	0
2.35222405	1.41728201	8
2.81993724	0	2.07674423
0	2.99941979	5.06598691
2.43041761	2.56163231	0
3.95034266	4.04965734	4.08416481
CELLS 106 424
3 0 2 1 
3 0 1 4 
3 1 2 3 
3 1 3 5 
3 3 12 11 
3 3 11 5 
3 5 11 15 
3 5 15 7 
3 7 15 19 
3 7 19 8 
3 8 19 17 
3 50 1 5 
3 50 5 7 
3 50 6 4 
3 50 4 1 
3 50 7 8 
3 50 8 6 
3 0 4 10 
3 0 10 9 
3 4 6 14 
3 4 14 10 
3 6 8 18 
3 6 18 14 
3 8 17 18 
3 9 10 21 
3 9 21 20 
3 10 14 13 
3 10 13 21 
3 13 14 18 
3 13 18 16 
3 13 23 31 
3 13 31 21 
3 16 18 17 
3 16 17 27 
3 20 21 31 
3 20 31 30 
3 23 33 32 
3 23 32 31 
3 30 31 32 
3 30 32 41 
3 51 16 27 
3 51 27 38 
3 51 23 13 
3 51 13 16 
3 51 38 33 
3 51 33 23 
3 11 24 25 
3 11 25 15 
3 11 12 22 
3 11 22 24 
3 17 29 28 
3 17 28 27 
3 22 36 35 
3 22 35 24 
3 24 35 26 
3 24 26 25 
3 26 40 28 
3 26 28 29 
3 26 35 34 
3 26 34 40 
3 34 35 36 
3 34 36 47 
3 52 19 15 
3 52 15 25 
3 52 25 26 
3 52 26 29 
3 52 29 17 
3 52 17 19 
3 27 28 37 
3 27 37 38 
3 28 40 39 
3 28 39 37 
3 32 33 44 
3 32 44 42 
3 32 42 48 
3 32 48 41 
3 33 38 37 
3 33 37 44 
3 34 46 39 
3 34 39 40 
3 34 47 45 
3 34 45 46 
3 42 43 49 
3 42 49 48 
3 43 46 45 
3 43 45 49 
3 53 39 46 
3 53 46 43 
3 53 43 42 
3 53 42 44 
3 53 44 37 
3 53 37 39 
3 54 41 48 
3 54 48 49 
3 54 49 45 
3 54 45 47 
3 54 47 36 
3 54 36 22 
3 54 22 12 
3 54 12 3 
3 54 3 2 
3 54 2 0 
3 54 0 9 
3 54 9 20 
3 54 20 30 
3 54 30 41 
CELL_TYPES 106
5
5
5
5
5
5
5
5
5
5
5
5
5
5
5
5
5
5
5
5
5
5
5
5
5
5
5
5
5
5
5
5
5
5
5
5
5
5
5
5
5
5
5
5
5
5
5
5
5
5
5
5
5
5
5
5
5
5
5
5
5
5
5
5
5
5
5
5
5
5
5
5
5
5
5
5
5
5
5
5
5
5
5
5
5
5
5
5
5
5
5
5
5
5
5
5
5
5
5
5
5
5
5
5
5
5
CELL_DATA 106
SCALARS patches float
LOOKUP_TABLE default
0
0
0
0
0
0
0
0
0
0
0
0
0
0
0
0
0
1
1
1
1
1
1
1
1
1
1
1
1
1
1
1
1
1
1
1
1
1
1
1
1
1
1
1
1
1
2
2
2
2
2
2
2
2
2
2
2
2
2
2
2
2
2
2
2
2
2
2
3
3
3
3
3
3
3
3
3
3
3
3
3
3
3
3
3
3
3
3
3
3
3
3
4
4
4
4
4
4
4
4
4
4
4
4
4
4
