# vtk DataFile Version 3.1 
for LSEConsole
ASCII
DATASET UNSTRUCTURED_GRID
POINTS 97 FLOAT
8	0	8
4.82170327	0	8
4.23822899	2.16255592	8
6.37358629	0	8
4.10654057	3.89345943	8
6.10181954	1.89818046	8
0	0	8
0	1.47198838	8
0	4.8037256	8
2.9486415	0	8
2.61814372	2.27538652	8
1.85490607	1.76881914	8
0	6.4254403	8
2.01467107	4.38970296	8
2.31756269	5.68243731	8
0	0	7.03358508
0	0	6.0439772
0	2.29111936	7.14052201
0	3.12219472	8
0	4.75283985	6.13070429
0	8	8
0	5.79584613	6.6365087
0	0.201473992	4.80874183
0	1.46813647	3.45055006
0	3.10790736	2.26949879
0	8	2.86333159
0	5.93571211	3.03470554
0	5.14945694	1.95925579
0	0.911989337	2.38979799
0	0.613315753	1.24660266
0	2.52262729	1.23179043
0	2.08358304	0
0	4.1199915	0
0	4.2702127	1.71784578
0	7.23987995	1.28032076
0	8	0
0	6.49234576	0
0	0.846200386	0
0	1.41179831	0
0	3.48035857	0
1.7988509	0	0
3.61709271	0.711242842	0
0	5.53988073	0
2.81754312	3.89418853	0
0.865678292	7.13432171	0
1.88125285	6.11874715	0
3.5528722	4.4471278	0
4.24982104	0	0
3.90995004	2.60962423	0
5.49342626	1.06025312	0
6.55026712	0	0
5.11557322	2.88442678	0
6.70379874	1.29620126	0
8	0	0
0	3.39693427	4.36492439
0	8	5.48183417
1.81718884	0	8
1.28269486	0.828843107	8
0.712888014	1.54290707	8
0	2.17383027	8
0	2.03004214	7.25660283
0	1.84364067	6.38374231
0	0	5.04264558
0	0.629856583	5.27884764
0	0	4.66984198
0	0	4.30799014
0	0	3.94114408
0	0.238365294	4.40452481
0	0	3.26315893
0	0	2.66516382
0	8	1.51461754
0	7.56828093	2.3798922
0	0	2.09649658
0	0	1.53953574
0	0	1.00180792
0	0	0.502195993
0	0	0
1.27376128	6.72623872	8
0	7.21349701	8
0	3.26990825	5.87015315
0	2.17780495	6.03171223
0	4.38829621	5.31978795
0	5.60859672	4.91163112
0	1.35682674	5.69189011
0	0.762826013	5.08566069
0	7.0130946	6.92046712
0	6.67321393	6.01903343
0	7.06990397	3.40208407
0	6.34998519	4.46372483
0	6.22097539	5.13359837
0.707092002	6.53491837	8
1.22305388	6.03386746	8
0	7.48442965	0
0	7.35684677	0
0.665350196	0	0
3.93335497	0	4.10458047
4.01320417	3.98679583	3.9402297
CELLS 190 760
3 0 5 2 
3 0 2 3 
3 1 3 2 
3 1 2 10 
3 1 10 11 
3 1 11 9 
3 2 5 4 
3 2 4 13 
3 2 13 8 
3 2 8 10 
3 4 14 91 
3 4 12 13 
3 6 56 7 
3 11 57 9 
3 18 58 11 
3 8 13 12 
3 8 18 11 
3 8 11 10 
3 14 77 90 
3 57 7 56 
3 9 57 56 
3 58 7 57 
3 11 58 57 
3 59 7 58 
3 18 59 58 
3 78 12 90 
3 20 78 77 
3 78 90 77 
3 14 90 91 
3 91 90 12 
3 4 91 12 
3 6 7 15 
3 17 59 18 
3 7 61 16 
3 7 16 15 
3 8 12 21 
3 8 21 19 
3 8 19 18 
3 65 67 66 
3 28 66 23 
3 23 24 30 
3 23 30 28 
3 24 33 32 
3 24 32 30 
3 34 70 92 
3 26 34 36 
3 26 36 27 
3 27 36 42 
3 27 42 33 
3 29 69 28 
3 28 30 31 
3 28 31 29 
3 29 31 38 
3 29 38 37 
3 37 74 29 
3 30 32 39 
3 30 39 31 
3 32 33 42 
3 34 92 93 
3 34 93 36 
3 18 80 17 
3 19 79 18 
3 54 82 26 
3 54 26 27 
3 84 63 83 
3 83 61 80 
3 54 24 23 
3 23 84 54 
3 54 27 33 
3 54 33 24 
3 12 86 21 
3 55 78 20 
3 25 87 55 
3 26 87 34 
3 88 82 89 
3 21 89 19 
3 60 7 59 
3 17 60 59 
3 60 17 61 
3 7 60 61 
3 63 22 62 
3 16 63 62 
3 62 22 64 
3 64 22 65 
3 65 22 67 
3 66 67 23 
3 28 68 66 
3 68 28 69 
3 71 25 70 
3 34 71 70 
3 29 72 69 
3 72 29 73 
3 37 75 74 
3 73 29 74 
3 75 37 76 
3 79 54 80 
3 18 79 80 
3 81 54 79 
3 19 81 79 
3 81 19 82 
3 54 81 82 
3 54 84 83 
3 84 22 63 
3 83 63 16 
3 54 83 80 
3 83 16 61 
3 80 61 17 
3 67 22 84 
3 23 67 84 
3 85 55 86 
3 12 85 86 
3 85 12 78 
3 55 85 78 
3 71 34 87 
3 25 71 87 
3 88 55 87 
3 26 88 87 
3 55 88 89 
3 88 26 82 
3 89 82 19 
3 86 55 89 
3 21 86 89 
3 92 70 35 
3 31 39 41 
3 31 41 38 
3 32 42 43 
3 32 43 48 
3 32 48 39 
3 36 44 45 
3 36 45 42 
3 37 38 40 
3 38 41 47 
3 38 47 40 
3 39 48 49 
3 39 49 41 
3 41 49 50 
3 41 50 47 
3 42 45 46 
3 42 46 43 
3 43 46 51 
3 43 51 48 
3 48 51 52 
3 48 52 49 
3 49 52 53 
3 49 53 50 
3 76 37 94 
3 92 35 44 
3 93 92 44 
3 93 44 36 
3 40 94 37 
3 95 76 94 
3 95 94 40 
3 95 40 47 
3 95 47 50 
3 95 50 53 
3 95 53 0 
3 95 0 3 
3 95 3 1 
3 95 1 9 
3 95 9 56 
3 95 56 6 
3 95 6 15 
3 95 15 16 
3 95 16 62 
3 95 62 64 
3 95 64 65 
3 95 65 66 
3 95 66 68 
3 95 68 69 
3 95 69 72 
3 95 72 73 
3 95 73 74 
3 95 74 75 
3 95 75 76 
3 96 53 52 
3 96 52 51 
3 96 51 46 
3 96 46 45 
3 96 45 44 
3 96 44 35 
3 96 35 70 
3 96 70 25 
3 96 25 55 
3 96 55 20 
3 96 20 77 
3 96 77 14 
3 96 14 4 
3 96 4 5 
3 96 5 0 
3 96 0 53 
CELL_TYPES 190
5
5
5
5
5
5
5
5
5
5
5
5
5
5
5
5
5
5
5
5
5
5
5
5
5
5
5
5
5
5
5
5
5
5
5
5
5
5
5
5
5
5
5
5
5
5
5
5
5
5
5
5
5
5
5
5
5
5
5
5
5
5
5
5
5
5
5
5
5
5
5
5
5
5
5
5
5
5
5
5
5
5
5
5
5
5
5
5
5
5
5
5
5
5
5
5
5
5
5
5
5
5
5
5
5
5
5
5
5
5
5
5
5
5
5
5
5
5
5
5
5
5
5
5
5
5
5
5
5
5
5
5
5
5
5
5
5
5
5
5
5
5
5
5
5
5
5
5
5
5
5
5
5
5
5
5
5
5
5
5
5
5
5
5
5
5
5
5
5
5
5
5
5
5
5
5
5
5
5
5
5
5
5
5
5
5
5
5
5
5
CELL_DATA 190
SCALARS patches float
LOOKUP_TABLE default
0
0
0
0
0
0
0
0
0
0
0
0
0
0
0
0
0
0
0
0
0
0
0
0
0
0
0
0
0
0
0
1
1
1
1
1
1
1
1
1
1
1
1
1
1
1
1
1
1
1
1
1
1
1
1
1
1
1
1
1
1
1
1
1
1
1
1
1
1
1
1
1
1
1
1
1
1
1
1
1
1
1
1
1
1
1
1
1
1
1
1
1
1
1
1
1
1
1
1
1
1
1
1
1
1
1
1
1
1
1
1
1
1
1
1
1
1
1
1
1
1
1
1
2
2
2
2
2
2
2
2
2
2
2
2
2
2
2
2
2
2
2
2
2
2
2
2
2
2
2
3
3
3
3
3
3
3
3
3
3
3
3
3
3
3
3
3
3
3
3
3
3
3
3
4
4
4
4
4
4
4
4
4
4
4
4
4
4
4
4
