# vtk DataFile Version 3.1 
for LSEConsole
ASCII
DATASET UNSTRUCTURED_GRID
POINTS 22 FLOAT
0	3.98949813	8
0	4.00048204	0
0	5.99544471	0
0	8	0
0	8	8
0	5.97453916	8
8	0	8
0	2.01042349	8
0	0	8
0	0	0
0	2.00409548	0
2.22821799	5.77178201	8
3.36668793	1.14762981	8
3.26818195	4.73181805	8
4.02762017	3.97237983	8
4.82580268	3.17419732	8
5.84785762	2.15214238	8
6.28793858	1.71206142	8
4.04452405	0	4.03332103
8	0	0
4.05176746	3.94823254	4.31170585
1.69572125	2.75863129	0
CELLS 40 160
3 5 3 2 
3 3 5 4 
3 2 0 5 
3 0 2 1 
3 0 10 7 
3 10 0 1 
3 7 9 8 
3 9 7 10 
3 8 12 7 
3 0 14 13 
3 11 4 5 
3 12 8 6 
3 12 17 16 
3 13 11 5 
3 0 13 5 
3 14 0 7 
3 15 14 7 
3 12 16 7 
3 16 15 7 
3 17 12 6 
3 18 9 19 
3 18 19 6 
3 18 6 8 
3 18 8 9 
3 20 19 3 
3 20 3 4 
3 20 4 11 
3 20 11 13 
3 20 13 14 
3 20 14 15 
3 20 15 16 
3 20 16 17 
3 20 17 6 
3 20 6 19 
3 21 19 9 
3 21 9 10 
3 21 10 1 
3 21 1 2 
3 21 2 3 
3 21 3 19 
CELL_TYPES 40
5
5
5
5
5
5
5
5
5
5
5
5
5
5
5
5
5
5
5
5
5
5
5
5
5
5
5
5
5
5
5
5
5
5
5
5
5
5
5
5
CELL_DATA 40
SCALARS patches float
LOOKUP_TABLE default
0
0
0
0
0
0
0
0
1
1
1
1
1
1
1
1
1
1
1
1
2
2
2
2
3
3
3
3
3
3
3
3
3
3
4
4
4
4
4
4
