# vtk DataFile Version 3.1 
for LSEConsole
ASCII
DATASET UNSTRUCTURED_GRID
POINTS 21 FLOAT
3.99952778	4.00047222	0
4.01070429	3.98929571	8
0	8	0
2.00464496	5.99535504	0
2.0255893	5.9744107	8
0	8	8
0	0	8
8	0	8
5.98991042	2.01008958	8
5.9958805	2.0041195	0
8	0	0
0	1.75831722	8
0	5.65749396	8
0	2.43923911	8
0	3.48926663	8
0	4.18994436	8
0	4.95166751	8
3.95849073	0	4.01379318
0	0	0
0	4.01035531	5.75415228
3.54306102	2.78246496	0
CELLS 38 152
3 1 3 4 
3 3 1 0 
3 4 2 5 
3 2 4 3 
3 8 10 9 
3 10 8 7 
3 9 1 8 
3 1 9 0 
3 7 11 6 
3 4 16 15 
3 11 7 8 
3 5 12 4 
3 13 11 8 
3 14 8 1 
3 14 13 8 
3 15 14 1 
3 4 15 1 
3 12 16 4 
3 17 18 10 
3 17 10 7 
3 17 7 6 
3 17 6 18 
3 19 2 18 
3 19 18 6 
3 19 6 11 
3 19 11 13 
3 19 13 14 
3 19 14 15 
3 19 15 16 
3 19 16 12 
3 19 12 5 
3 19 5 2 
3 20 10 18 
3 20 18 2 
3 20 2 3 
3 20 3 0 
3 20 0 9 
3 20 9 10 
CELL_TYPES 38
5
5
5
5
5
5
5
5
5
5
5
5
5
5
5
5
5
5
5
5
5
5
5
5
5
5
5
5
5
5
5
5
5
5
5
5
5
5
CELL_DATA 38
SCALARS patches float
LOOKUP_TABLE default
0
0
0
0
0
0
0
0
1
1
1
1
1
1
1
1
1
1
2
2
2
2
3
3
3
3
3
3
3
3
3
3
4
4
4
4
4
4
