# vtk DataFile Version 3.1 
for LSEConsole
ASCII
DATASET UNSTRUCTURED_GRID
POINTS 19 FLOAT
0	8	0
0	8	8
8	0	8
6.00001522	0	8
4.0000089	0	8
1.99998079	0	8
0	0	8
0	5.77178201	8
0	4.73181805	8
0	3.97237983	8
0	3.17419732	8
0	2.15214238	8
0	1.71206142	8
3.99674357	0	4.16928482
0	0	0
8	0	0
4.04436497	3.95563503	4.05981715
0	3.94823254	4.31170585
2.66668075	2.66665147	0
CELLS 34 136
3 5 4 10 
3 4 9 10 
3 4 3 7 
3 5 12 6 
3 1 3 2 
3 3 1 7 
3 4 7 8 
3 9 4 8 
3 5 10 11 
3 12 5 11 
3 13 14 15 
3 13 15 2 
3 13 2 3 
3 13 3 4 
3 13 4 5 
3 13 5 6 
3 13 6 14 
3 16 15 0 
3 16 0 1 
3 16 1 2 
3 16 2 15 
3 17 0 14 
3 17 14 6 
3 17 6 12 
3 17 12 11 
3 17 11 10 
3 17 10 9 
3 17 9 8 
3 17 8 7 
3 17 7 1 
3 17 1 0 
3 18 15 14 
3 18 14 0 
3 18 0 15 
CELL_TYPES 34
5
5
5
5
5
5
5
5
5
5
5
5
5
5
5
5
5
5
5
5
5
5
5
5
5
5
5
5
5
5
5
5
5
5
CELL_DATA 34
SCALARS patches float
LOOKUP_TABLE default
0
0
0
0
0
0
0
0
0
0
1
1
1
1
1
1
1
2
2
2
2
3
3
3
3
3
3
3
3
3
3
4
4
4
