# vtk DataFile Version 3.1 
for LSEConsole
ASCII
DATASET UNSTRUCTURED_GRID
POINTS 78 FLOAT
-0.019794	-0.025744	-0.321619
-0.062514	-0.014281	-0.383302
-0.057824	-0.016152	-0.376317
-0.05247	-0.017759	-0.370118
-0.047558	-0.019777	-0.363659
-0.041583	-0.020981	-0.357805
-0.035857	-0.022292	-0.351596
-0.030477	-0.023466	-0.344659
-0.0248	-0.02407	-0.3357
-0.061139	-0.020701	-0.387349
-0.05615	-0.022529	-0.380744
-0.051089	-0.024277	-0.374635
-0.04591	-0.02605	-0.368634
-0.040273	-0.027491	-0.362877
-0.034822	-0.029019	-0.356926
-0.028964	-0.030254	-0.351289
-0.0193043	-0.0310274	-0.340465
-0.060992	-0.028085	-0.390965
-0.05623	-0.030108	-0.384251
-0.051028	-0.031907	-0.37836
-0.045768	-0.033683	-0.372615
-0.040329	-0.03535	-0.367013
-0.034766	-0.03698	-0.361534
-0.029162	-0.038572	-0.356095
-0.0211657	-0.0407894	-0.348973
-0.061197	-0.035733	-0.394302
-0.056399	-0.037845	-0.387625
-0.051135	-0.039678	-0.381894
-0.045901	-0.041513	-0.376324
-0.040518	-0.043312	-0.370969
-0.035064	-0.045129	-0.365724
-0.029573	-0.046984	-0.360522
-0.0216517	-0.0495114	-0.353658
-0.061474	-0.043567	-0.3974
-0.05642	-0.0456	-0.390863
-0.051216	-0.047427	-0.385222
-0.046068	-0.049307	-0.379831
-0.040841	-0.051235	-0.374661
-0.035428	-0.053188	-0.369748
-0.029997	-0.055232	-0.364852
-0.024499	-0.057375	-0.360009
-0.060679	-0.051068	-0.400488
-0.056128	-0.053155	-0.394032
-0.050815	-0.05482	-0.38874
-0.045996	-0.05678	-0.383441
-0.040927	-0.058799	-0.378493
-0.0358	-0.060943	-0.373709
-0.030447	-0.063111	-0.369152
-0.0242391	-0.0655763	-0.364095
-0.058572	-0.056234	-0.403379
-0.054729	-0.05862	-0.399056
-0.050196	-0.060763	-0.393742
-0.045424	-0.06272	-0.388627
-0.040492	-0.064904	-0.383777
-0.035643	-0.067214	-0.378998
-0.030081	-0.069282	-0.374852
-0.024635	-0.071539	-0.37087
-0.0545567	-0.0583088	-0.404459
-0.0504268	-0.0604427	-0.40557
-0.045122	-0.06436	-0.397753
-0.040009	-0.066937	-0.392597
-0.034564	-0.069215	-0.387811
-0.029061	-0.071313	-0.383338
-0.0248351	-0.0727899	-0.380679
-0.0454649	-0.0630066	-0.406904
-0.0412446	-0.0651873	-0.408039
-0.033862	-0.06778	-0.396917
-0.027951	-0.070202	-0.391936
-0.0244993	-0.0714645	-0.389347
-0.0358034	-0.0679988	-0.409502
-0.02758	-0.070094	-0.400785
-0.0240293	-0.0719595	-0.397285
-0.0255386	-0.0734061	-0.40799
-0.0246018	-0.0725086	-0.401346
-0.0226268	-0.0466083	-0.369617
-0.020539	-0.015744	-0.37799
-0.041791	-0.0399163	-0.393165
-0.0342823	-0.0185897	-0.36097
CELLS 152 608
3 9 10 2 
3 2 1 9 
3 10 11 3 
3 3 2 10 
3 11 12 4 
3 4 3 11 
3 12 13 5 
3 5 4 12 
3 13 14 6 
3 6 5 13 
3 14 15 7 
3 7 6 14 
3 15 16 8 
3 8 7 15 
3 0 8 16 
3 17 18 10 
3 10 9 17 
3 18 19 11 
3 11 10 18 
3 19 20 12 
3 12 11 19 
3 20 21 13 
3 13 12 20 
3 21 22 14 
3 14 13 21 
3 22 23 15 
3 15 14 22 
3 23 24 16 
3 16 15 23 
3 25 26 18 
3 18 17 25 
3 26 27 19 
3 19 18 26 
3 27 28 20 
3 20 19 27 
3 28 29 21 
3 21 20 28 
3 29 30 22 
3 22 21 29 
3 30 31 23 
3 23 22 30 
3 31 32 24 
3 24 23 31 
3 33 34 26 
3 26 25 33 
3 34 35 27 
3 27 26 34 
3 35 36 28 
3 28 27 35 
3 36 37 29 
3 29 28 36 
3 37 38 30 
3 30 29 37 
3 38 39 31 
3 31 30 38 
3 39 40 32 
3 32 31 39 
3 41 42 34 
3 34 33 41 
3 42 43 35 
3 35 34 42 
3 43 44 36 
3 36 35 43 
3 44 45 37 
3 37 36 44 
3 45 46 38 
3 38 37 45 
3 46 47 39 
3 39 38 46 
3 47 48 40 
3 40 39 47 
3 49 50 42 
3 42 41 49 
3 50 51 43 
3 43 42 50 
3 51 52 44 
3 44 43 51 
3 52 53 45 
3 45 44 52 
3 53 54 46 
3 46 45 53 
3 54 55 47 
3 47 46 54 
3 55 56 48 
3 48 47 55 
3 57 50 49 
3 50 57 58 
3 58 51 50 
3 51 58 59 
3 59 52 51 
3 52 59 60 
3 60 53 52 
3 53 60 61 
3 61 54 53 
3 54 61 62 
3 62 55 54 
3 55 62 63 
3 63 56 55 
3 64 59 58 
3 59 64 65 
3 65 60 59 
3 60 65 66 
3 66 61 60 
3 61 66 67 
3 67 62 61 
3 62 67 68 
3 68 63 62 
3 69 66 65 
3 66 69 70 
3 70 67 66 
3 67 70 71 
3 71 68 67 
3 72 70 69 
3 70 72 73 
3 73 71 70 
3 74 75 0 
3 74 0 16 
3 74 16 24 
3 74 24 32 
3 74 32 40 
3 74 40 48 
3 74 48 56 
3 74 56 63 
3 74 63 68 
3 74 68 71 
3 74 71 73 
3 74 73 72 
3 74 72 75 
3 76 1 75 
3 76 75 72 
3 76 72 69 
3 76 69 65 
3 76 65 64 
3 76 64 58 
3 76 58 57 
3 76 57 49 
3 76 49 41 
3 76 41 33 
3 76 33 25 
3 76 25 17 
3 76 17 9 
3 76 9 1 
3 77 0 75 
3 77 75 1 
3 77 1 2 
3 77 2 3 
3 77 3 4 
3 77 4 5 
3 77 5 6 
3 77 6 7 
3 77 7 8 
3 77 8 0 
CELL_TYPES 152
5
5
5
5
5
5
5
5
5
5
5
5
5
5
5
5
5
5
5
5
5
5
5
5
5
5
5
5
5
5
5
5
5
5
5
5
5
5
5
5
5
5
5
5
5
5
5
5
5
5
5
5
5
5
5
5
5
5
5
5
5
5
5
5
5
5
5
5
5
5
5
5
5
5
5
5
5
5
5
5
5
5
5
5
5
5
5
5
5
5
5
5
5
5
5
5
5
5
5
5
5
5
5
5
5
5
5
5
5
5
5
5
5
5
5
5
5
5
5
5
5
5
5
5
5
5
5
5
5
5
5
5
5
5
5
5
5
5
5
5
5
5
5
5
5
5
5
5
5
5
5
5
CELL_DATA 152
SCALARS patches float
LOOKUP_TABLE default
0
0
0
0
0
0
0
0
0
0
0
0
0
0
0
0
0
0
0
0
0
0
0
0
0
0
0
0
0
0
0
0
0
0
0
0
0
0
0
0
0
0
0
0
0
0
0
0
0
0
0
0
0
0
0
0
0
0
0
0
0
0
0
0
0
0
0
0
0
0
0
0
0
0
0
0
0
0
0
0
0
0
0
0
0
1
1
1
1
1
1
1
1
1
1
1
1
1
1
1
1
1
1
1
1
1
1
1
1
1
1
1
1
1
1
2
2
2
2
2
2
2
2
2
2
2
2
2
3
3
3
3
3
3
3
3
3
3
3
3
3
3
4
4
4
4
4
4
4
4
4
4
