# vtk DataFile Version 3.1 
for LSEConsole
ASCII
DATASET UNSTRUCTURED_GRID
POINTS 20 FLOAT
-0.12272	0.165648	0.29699
-0.11545	0.169776	0.298685
-0.107195	0.171988	0.30057
-0.098084	0.173795	0.302115
-0.088411	0.17501	0.303546
-0.078219	0.175367	0.30498
-0.067626	0.176008	0.305872
-0.056943	0.175638	0.306826
-0.127255	0.157562	0.29725
-0.128083	0.148149	0.298345
-0.128167	0.138599	0.299508
-0.128159	0.129125	0.300494
-0.088655	0.149884	0.301201
-0.046798	0.129125	0.300494
-0.0904735	0.16199	0.295149
-0.072432	0.155977	0.290252
-0.109799	0.150697	0.286527
-0.089297	0.141231	0.294442
-0.120226	0.14849	0.29467
-0.0587243	0.15358	0.299191
CELLS 36 144
3 12 13 7 
3 12 7 6 
3 12 6 5 
3 12 5 4 
3 12 4 3 
3 12 3 2 
3 12 2 1 
3 12 1 0 
3 12 0 8 
3 12 8 9 
3 12 9 10 
3 12 10 11 
3 12 11 13 
3 14 7 15 
3 14 15 16 
3 14 16 0 
3 14 0 1 
3 14 1 2 
3 14 2 3 
3 14 3 4 
3 14 4 5 
3 14 5 6 
3 14 6 7 
3 17 15 13 
3 17 13 11 
3 17 11 16 
3 17 16 15 
3 18 11 10 
3 18 10 9 
3 18 9 8 
3 18 8 0 
3 18 0 16 
3 18 16 11 
3 19 7 13 
3 19 13 15 
3 19 15 7 
CELL_TYPES 36
5
5
5
5
5
5
5
5
5
5
5
5
5
5
5
5
5
5
5
5
5
5
5
5
5
5
5
5
5
5
5
5
5
5
5
5
CELL_DATA 36
SCALARS patches float
LOOKUP_TABLE default
0
0
0
0
0
0
0
0
0
0
0
0
0
1
1
1
1
1
1
1
1
1
1
2
2
2
2
3
3
3
3
3
3
4
4
4
