# vtk DataFile Version 3.1 
for LSEConsole
ASCII
DATASET UNSTRUCTURED_GRID
POINTS 44 FLOAT
-0.078284	0.133349	-0.314069
-0.0727505	0.136173	-0.306499
-0.0652713	0.13711	-0.299916
-0.0586255	0.137454	-0.296699
-0.0512422	0.136833	-0.292444
-0.0437541	0.136092	-0.287164
-0.036098	0.135857	-0.285772
-0.0282041	0.135491	-0.283312
-0.0833191	0.124341	-0.312509
-0.085268	0.113912	-0.311521
-0.085039	0.106032	-0.315576
-0.084729	0.097056	-0.318974
-0.084293	0.087718	-0.32218
-0.083604	0.077913	-0.323573
-0.08121	0.06861	-0.324461
-0.075662	0.060496	-0.322969
-0.070128	0.055573	-0.315203
-0.064505	0.052969	-0.311218
-0.058694	0.051001	-0.307639
-0.052999	0.048993	-0.303851
-0.047594	0.046886	-0.299692
-0.042556	0.044926	-0.295026
-0.038481	0.042802	-0.289776
-0.035485	0.040939	-0.285139
-0.0697085	0.136583	-0.312169
-0.0637104	0.138284	-0.311966
-0.056963	0.139975	-0.31181
-0.05041	0.141234	-0.310743
-0.0445148	0.142375	-0.313508
-0.036413	0.140732	-0.308484
-0.029133	0.140295	-0.30752
-0.0260374	0.140249	-0.304216
-0.0355524	0.143246	-0.315313
-0.0310975	0.143875	-0.316664
-0.02365	0.144926	-0.318922
-0.073941	0.135108	-0.313104
-0.033704	0.142184	-0.313123
-0.0397983	0.142647	-0.314025
-0.0269715	0.138329	-0.297142
-0.0544088	0.0925688	-0.301372
-0.0277473	0.095463	-0.306574
-0.02365	0.060496	-0.338922
-0.0503115	0.0998167	-0.32372
-0.0449323	0.053977	-0.315677
CELLS 84 336
3 1 24 35 
3 24 1 2 
3 2 25 24 
3 25 2 3 
3 3 26 25 
3 26 3 4 
3 4 27 26 
3 27 4 5 
3 5 28 27 
3 28 5 6 
3 6 29 28 
3 29 6 7 
3 7 30 29 
3 30 7 38 
3 29 32 37 
3 32 29 36 
3 30 33 36 
3 33 30 31 
3 31 34 33 
3 35 0 1 
3 36 33 32 
3 36 29 30 
3 37 28 29 
3 38 31 30 
3 39 15 16 
3 39 16 17 
3 39 17 18 
3 39 18 19 
3 39 19 20 
3 39 20 21 
3 39 21 22 
3 39 22 23 
3 39 23 7 
3 39 7 6 
3 39 6 5 
3 39 5 4 
3 39 4 3 
3 39 3 2 
3 39 2 1 
3 39 1 0 
3 39 0 8 
3 39 8 9 
3 39 9 10 
3 39 10 11 
3 39 11 12 
3 39 12 13 
3 39 13 14 
3 39 14 15 
3 40 23 41 
3 40 41 34 
3 40 34 31 
3 40 31 38 
3 40 38 7 
3 40 7 23 
3 42 41 15 
3 42 15 14 
3 42 14 13 
3 42 13 12 
3 42 12 11 
3 42 11 10 
3 42 10 9 
3 42 9 8 
3 42 8 0 
3 42 0 35 
3 42 35 24 
3 42 24 25 
3 42 25 26 
3 42 26 27 
3 42 27 28 
3 42 28 37 
3 42 37 32 
3 42 32 33 
3 42 33 34 
3 42 34 41 
3 43 23 22 
3 43 22 21 
3 43 21 20 
3 43 20 19 
3 43 19 18 
3 43 18 17 
3 43 17 16 
3 43 16 15 
3 43 15 41 
3 43 41 23 
CELL_TYPES 84
5
5
5
5
5
5
5
5
5
5
5
5
5
5
5
5
5
5
5
5
5
5
5
5
5
5
5
5
5
5
5
5
5
5
5
5
5
5
5
5
5
5
5
5
5
5
5
5
5
5
5
5
5
5
5
5
5
5
5
5
5
5
5
5
5
5
5
5
5
5
5
5
5
5
5
5
5
5
5
5
5
5
5
5
CELL_DATA 84
SCALARS patches float
LOOKUP_TABLE default
0
0
0
0
0
0
0
0
0
0
0
0
0
0
0
0
0
0
0
0
0
0
0
0
1
1
1
1
1
1
1
1
1
1
1
1
1
1
1
1
1
1
1
1
1
1
1
1
2
2
2
2
2
2
3
3
3
3
3
3
3
3
3
3
3
3
3
3
3
3
3
3
3
3
4
4
4
4
4
4
4
4
4
4
