# vtk DataFile Version 3.1 
for LSEConsole
ASCII
DATASET UNSTRUCTURED_GRID
POINTS 23 FLOAT
-0.13457	0.149395	0.256507
-0.127821	0.15983	0.258718
-0.118779	0.166682	0.26195
-0.107632	0.170662	0.264834
-0.095472	0.17259	0.266575
-0.082913	0.172835	0.26749
-0.070229	0.17208	0.268144
-0.057506	0.171091	0.269024
-0.130582	0.141774	0.272652
-0.12981	0.139501	0.276429
-0.128459	0.133462	0.287674
-0.128159	0.129125	0.300494
-0.128403	0.131509	0.294173
-0.129346	0.136269	0.282051
-0.133377	0.146997	0.263972
-0.0917582	0.144684	0.28163
-0.046798	0.129125	0.300494
-0.089297	0.141231	0.294442
-0.072432	0.155977	0.290252
-0.109799	0.150697	0.286527
-0.0935767	0.15679	0.275577
-0.124176	0.143072	0.281176
-0.058912	0.152064	0.28659
CELLS 42 168
3 15 7 16 
3 15 16 11 
3 15 11 12 
3 15 12 10 
3 15 10 13 
3 15 13 9 
3 15 9 8 
3 15 8 14 
3 15 14 0 
3 15 0 1 
3 15 1 2 
3 15 2 3 
3 15 3 4 
3 15 4 5 
3 15 5 6 
3 15 6 7 
3 17 16 18 
3 17 18 19 
3 17 19 11 
3 17 11 16 
3 20 18 7 
3 20 7 6 
3 20 6 5 
3 20 5 4 
3 20 4 3 
3 20 3 2 
3 20 2 1 
3 20 1 0 
3 20 0 19 
3 20 19 18 
3 21 0 14 
3 21 14 8 
3 21 8 9 
3 21 9 13 
3 21 13 10 
3 21 10 12 
3 21 12 11 
3 21 11 19 
3 21 19 0 
3 22 16 7 
3 22 7 18 
3 22 18 16 
CELL_TYPES 42
5
5
5
5
5
5
5
5
5
5
5
5
5
5
5
5
5
5
5
5
5
5
5
5
5
5
5
5
5
5
5
5
5
5
5
5
5
5
5
5
5
5
CELL_DATA 42
SCALARS patches float
LOOKUP_TABLE default
0
0
0
0
0
0
0
0
0
0
0
0
0
0
0
0
1
1
1
1
2
2
2
2
2
2
2
2
2
2
3
3
3
3
3
3
3
3
3
4
4
4
