# vtk DataFile Version 3.1 
for LSEConsole
ASCII
DATASET UNSTRUCTURED_GRID
POINTS 38 FLOAT
-0.12272	0.165648	0.29699
-0.11545	0.169776	0.298685
-0.107195	0.171988	0.30057
-0.098084	0.173795	0.302115
-0.088411	0.17501	0.303546
-0.078219	0.175367	0.30498
-0.067626	0.176008	0.305872
-0.056943	0.175638	0.306826
-0.125238	0.160175	0.283501
-0.118673	0.166733	0.285016
-0.109693	0.1695	0.287396
-0.099956	0.170822	0.289418
-0.089815	0.172176	0.290938
-0.079165	0.172339	0.292269
-0.068166	0.172064	0.293431
-0.056994	0.171626	0.294655
-0.128483	0.15424	0.270146
-0.123422	0.162986	0.271631
-0.114428	0.168389	0.274545
-0.103672	0.170206	0.2769
-0.092459	0.171281	0.278529
-0.080906	0.171301	0.27973
-0.069094	0.170802	0.280736
-0.057128	0.170221	0.281788
-0.13457	0.149395	0.256507
-0.127821	0.15983	0.258718
-0.118779	0.166682	0.26195
-0.107632	0.170662	0.264834
-0.095472	0.17259	0.266575
-0.082913	0.172835	0.26749
-0.070229	0.17208	0.268144
-0.057506	0.171091	0.269024
-0.0935767	0.15679	0.275577
-0.072432	0.155977	0.290252
-0.109799	0.150697	0.286527
-0.0904735	0.16199	0.295149
-0.122363	0.155247	0.280008
-0.0622937	0.167569	0.288701
CELLS 72 288
3 8 0 1 
3 1 9 8 
3 9 1 2 
3 2 10 9 
3 10 2 3 
3 3 11 10 
3 11 3 4 
3 4 12 11 
3 12 4 5 
3 5 13 12 
3 13 5 6 
3 6 14 13 
3 14 6 7 
3 7 15 14 
3 16 8 9 
3 9 17 16 
3 17 9 10 
3 10 18 17 
3 18 10 11 
3 11 19 18 
3 19 11 12 
3 12 20 19 
3 20 12 13 
3 13 21 20 
3 21 13 14 
3 14 22 21 
3 22 14 15 
3 15 23 22 
3 24 16 17 
3 17 25 24 
3 25 17 18 
3 18 26 25 
3 26 18 19 
3 19 27 26 
3 27 19 20 
3 20 28 27 
3 28 20 21 
3 21 29 28 
3 29 21 22 
3 22 30 29 
3 30 22 23 
3 23 31 30 
3 32 31 33 
3 32 33 34 
3 32 34 24 
3 32 24 25 
3 32 25 26 
3 32 26 27 
3 32 27 28 
3 32 28 29 
3 32 29 30 
3 32 30 31 
3 35 33 7 
3 35 7 6 
3 35 6 5 
3 35 5 4 
3 35 4 3 
3 35 3 2 
3 35 2 1 
3 35 1 0 
3 35 0 34 
3 35 34 33 
3 36 0 8 
3 36 8 16 
3 36 16 24 
3 36 24 34 
3 36 34 0 
3 37 31 23 
3 37 23 15 
3 37 15 7 
3 37 7 33 
3 37 33 31 
CELL_TYPES 72
5
5
5
5
5
5
5
5
5
5
5
5
5
5
5
5
5
5
5
5
5
5
5
5
5
5
5
5
5
5
5
5
5
5
5
5
5
5
5
5
5
5
5
5
5
5
5
5
5
5
5
5
5
5
5
5
5
5
5
5
5
5
5
5
5
5
5
5
5
5
5
5
CELL_DATA 72
SCALARS patches float
LOOKUP_TABLE default
0
0
0
0
0
0
0
0
0
0
0
0
0
0
0
0
0
0
0
0
0
0
0
0
0
0
0
0
0
0
0
0
0
0
0
0
0
0
0
0
0
0
1
1
1
1
1
1
1
1
1
1
2
2
2
2
2
2
2
2
2
2
3
3
3
3
3
4
4
4
4
4
