# vtk DataFile Version 3.1 
for LSEConsole
ASCII
DATASET UNSTRUCTURED_GRID
POINTS 47 FLOAT
-0.046159	0.175803	0.307468
-0.035431	0.175304	0.308133
-0.024834	0.174781	0.308512
-0.014611	0.174387	0.308363
-0.004982	0.173529	0.308487
0.003783	0.171195	0.307779
0.011486	0.168542	0.307281
0.017574	0.163549	0.307124
0.019811	0.154576	0.310416
-0.045696	0.171476	0.29554
-0.034483	0.170842	0.296535
-0.023449	0.170553	0.297149
-0.012819	0.170164	0.297457
-0.002794	0.169211	0.297594
0.0023954	0.168156	0.297418
0.013407	0.162512	0.297165
0.0176846	0.152161	0.298725
0.01853	0.144678	0.301144
-0.045109	0.169618	0.28299
-0.033143	0.169086	0.28424
-0.021344	0.168509	0.285377
-0.009846	0.168139	0.2864
0.0028121	0.166314	0.286911
0.010068	0.163526	0.286348
0.0177034	0.151913	0.285831
0.018776	0.147372	0.286038
0.0233903	0.136334	0.284435
-0.044809	0.17001	0.270306
-0.032123	0.16943	0.271797
-0.019551	0.168445	0.273318
-0.007236	0.167727	0.274903
0.004153	0.16576	0.275629
0.013187	0.160332	0.273549
0.019215	0.151902	0.271352
0.023466	0.142707	0.271217
0.019231	0.133326	0.308377
0.023131	0.125839	0.298111
0.029396	0.118567	0.307793
-0.056943	0.175638	0.306826
-0.056994	0.171626	0.294655
-0.057128	0.170221	0.281788
-0.057506	0.171091	0.269024
0.021121	0.145039	0.278627
-0.0136335	0.144477	0.306382
-0.046798	0.129125	0.300494
-0.0128605	0.140373	0.287132
-0.053749	0.158618	0.292115
CELLS 90 360
3 9 0 1 
3 1 10 9 
3 10 1 2 
3 2 11 10 
3 11 2 3 
3 3 12 11 
3 12 3 4 
3 4 13 12 
3 13 4 5 
3 5 14 13 
3 14 5 6 
3 6 15 14 
3 15 6 7 
3 7 16 15 
3 16 7 8 
3 18 9 10 
3 10 19 18 
3 19 10 11 
3 11 20 19 
3 20 11 12 
3 12 21 20 
3 21 12 13 
3 13 22 21 
3 22 13 14 
3 14 23 22 
3 23 14 15 
3 15 24 23 
3 24 15 16 
3 16 25 24 
3 27 18 19 
3 19 28 27 
3 28 19 20 
3 20 29 28 
3 29 20 21 
3 21 30 29 
3 30 21 22 
3 22 31 30 
3 31 22 23 
3 23 32 31 
3 32 23 24 
3 24 33 32 
3 33 24 25 
3 25 42 33 
3 39 38 0 
3 0 9 39 
3 40 39 9 
3 9 18 40 
3 41 40 18 
3 18 27 41 
3 42 34 33 
3 35 17 8 
3 8 17 16 
3 36 26 17 
3 17 35 36 
3 25 16 17 
3 17 26 25 
3 34 42 26 
3 37 36 35 
3 42 25 26 
3 43 37 35 
3 43 35 8 
3 43 8 7 
3 43 7 6 
3 43 6 5 
3 43 5 4 
3 43 4 3 
3 43 3 2 
3 43 2 1 
3 43 1 0 
3 43 0 38 
3 43 38 44 
3 43 44 37 
3 45 34 26 
3 45 26 36 
3 45 36 37 
3 45 37 44 
3 45 44 41 
3 45 41 27 
3 45 27 28 
3 45 28 29 
3 45 29 30 
3 45 30 31 
3 45 31 32 
3 45 32 33 
3 45 33 34 
3 46 44 38 
3 46 38 39 
3 46 39 40 
3 46 40 41 
3 46 41 44 
CELL_TYPES 90
5
5
5
5
5
5
5
5
5
5
5
5
5
5
5
5
5
5
5
5
5
5
5
5
5
5
5
5
5
5
5
5
5
5
5
5
5
5
5
5
5
5
5
5
5
5
5
5
5
5
5
5
5
5
5
5
5
5
5
5
5
5
5
5
5
5
5
5
5
5
5
5
5
5
5
5
5
5
5
5
5
5
5
5
5
5
5
5
5
5
CELL_DATA 90
SCALARS patches float
LOOKUP_TABLE default
0
0
0
0
0
0
0
0
0
0
0
0
0
0
0
0
0
0
0
0
0
0
0
0
0
0
0
0
0
0
0
0
0
0
0
0
0
0
0
0
0
0
0
0
0
0
0
0
0
0
1
1
1
1
1
1
1
1
1
2
2
2
2
2
2
2
2
2
2
2
2
2
3
3
3
3
3
3
3
3
3
3
3
3
3
4
4
4
4
4
