# vtk DataFile Version 3.1 
for LSEConsole
ASCII
DATASET UNSTRUCTURED_GRID
POINTS 78 FLOAT
8	0	0
0	8	0
0.897292102	7.1027079	0
1.76628687	6.23371313	0
2.63679807	5.36320193	0
3.51660243	4.48339757	0
4.40643822	3.59356178	0
5.32849823	2.67150177	0
6.4344634	1.5655366	0
0	8	1.30873274
0.979768488	7.02023151	1.30994589
1.91656734	6.08343266	1.32432215
2.86304384	5.13695616	1.3578273
3.8296798	4.1703202	1.40283302
4.83242201	3.16757799	1.49452767
5.90804076	2.09195924	1.69321547
8	0	2.19753022
0	8	2.7040907
1.04598491	6.95401509	2.69887755
2.04994597	5.95005403	2.71789939
3.05933076	4.94066924	2.75871453
4.08827552	3.91172448	2.82582884
5.15108441	2.84891559	2.9434102
6.27166478	1.72833522	3.13635304
8	0	3.66590228
0	8	4.12043135
1.10238367	6.89761633	4.09920093
2.16057975	5.83942025	4.10599782
3.21951612	4.78048388	4.13836647
4.29039897	3.70960103	4.20224053
5.38081297	2.61918703	4.30830432
6.4899849	1.5100151	4.4656013
8	0	4.7784953
0	8	5.5506942
1.15410086	6.84589914	5.48437807
2.25881583	5.74118417	5.46572594
3.35670304	4.64329696	5.48009306
4.46044526	3.53955474	5.52692084
5.58347264	2.41652736	5.61236026
6.75218243	1.24781757	5.74304151
8	0	5.95717629
0	8	6.93374318
1.18904627	6.81095373	6.8148996
2.33666007	5.66333993	6.77902057
3.46185919	4.53814081	6.77386568
4.58389613	3.41610387	6.79510903
5.70489366	2.29510634	6.84167707
6.81770541	1.18229459	6.9063723
8	0	6.98602892
0	8	8
1.00872166	6.99127834	8
2.18657541	5.81342459	8
3.35763451	4.64236549	8
4.52704926	3.47295074	8
5.68609183	2.31390817	8
6.85311275	1.14688725	8
8	0	8
0	7.02298299	8
0	6.01808343	8
1.70400072	4.53749016	8
2.8539716	3.30388738	8
4.00090452	2.06622429	8
5.13970743	0.869254393	8
5.89229168	0	8
0	4.81076893	8
0	3.78388004	8
2.21166917	2.08441408	8
3.3625817	0.77390084	8
4.02225737	0	8
0	2.45994271	8
1.56236293	0.750793466	8
2.32438639	0	8
0	0	8
1.4426104	0	8
5.19352851	0	4.4141183
0	0	0
0	4.03114724	4.10931223
2.97195097	3.21256873	0
CELLS 152 608
3 9 10 2 
3 2 1 9 
3 10 11 3 
3 3 2 10 
3 11 12 4 
3 4 3 11 
3 12 13 5 
3 5 4 12 
3 13 14 6 
3 6 5 13 
3 14 15 7 
3 7 6 14 
3 15 16 8 
3 8 7 15 
3 0 8 16 
3 17 18 10 
3 10 9 17 
3 18 19 11 
3 11 10 18 
3 19 20 12 
3 12 11 19 
3 20 21 13 
3 13 12 20 
3 21 22 14 
3 14 13 21 
3 22 23 15 
3 15 14 22 
3 23 24 16 
3 16 15 23 
3 25 26 18 
3 18 17 25 
3 26 27 19 
3 19 18 26 
3 27 28 20 
3 20 19 27 
3 28 29 21 
3 21 20 28 
3 29 30 22 
3 22 21 29 
3 30 31 23 
3 23 22 30 
3 31 32 24 
3 24 23 31 
3 33 34 26 
3 26 25 33 
3 34 35 27 
3 27 26 34 
3 35 36 28 
3 28 27 35 
3 36 37 29 
3 29 28 36 
3 37 38 30 
3 30 29 37 
3 38 39 31 
3 31 30 38 
3 39 40 32 
3 32 31 39 
3 41 42 34 
3 34 33 41 
3 42 43 35 
3 35 34 42 
3 43 44 36 
3 36 35 43 
3 44 45 37 
3 37 36 44 
3 45 46 38 
3 38 37 45 
3 46 47 39 
3 39 38 46 
3 47 48 40 
3 40 39 47 
3 49 50 42 
3 42 41 49 
3 50 51 43 
3 43 42 50 
3 51 52 44 
3 44 43 51 
3 52 53 45 
3 45 44 52 
3 53 54 46 
3 46 45 53 
3 54 55 47 
3 47 46 54 
3 55 56 48 
3 48 47 55 
3 57 50 49 
3 50 57 58 
3 58 51 50 
3 51 58 59 
3 59 52 51 
3 52 59 60 
3 60 53 52 
3 53 60 61 
3 61 54 53 
3 54 61 62 
3 62 55 54 
3 55 62 63 
3 63 56 55 
3 64 59 58 
3 59 64 65 
3 65 60 59 
3 60 65 66 
3 66 61 60 
3 61 66 67 
3 67 62 61 
3 62 67 68 
3 68 63 62 
3 69 66 65 
3 66 69 70 
3 70 67 66 
3 67 70 71 
3 71 68 67 
3 72 70 69 
3 70 72 73 
3 73 71 70 
3 74 75 0 
3 74 0 16 
3 74 16 24 
3 74 24 32 
3 74 32 40 
3 74 40 48 
3 74 48 56 
3 74 56 63 
3 74 63 68 
3 74 68 71 
3 74 71 73 
3 74 73 72 
3 74 72 75 
3 76 1 75 
3 76 75 72 
3 76 72 69 
3 76 69 65 
3 76 65 64 
3 76 64 58 
3 76 58 57 
3 76 57 49 
3 76 49 41 
3 76 41 33 
3 76 33 25 
3 76 25 17 
3 76 17 9 
3 76 9 1 
3 77 0 75 
3 77 75 1 
3 77 1 2 
3 77 2 3 
3 77 3 4 
3 77 4 5 
3 77 5 6 
3 77 6 7 
3 77 7 8 
3 77 8 0 
CELL_TYPES 152
5
5
5
5
5
5
5
5
5
5
5
5
5
5
5
5
5
5
5
5
5
5
5
5
5
5
5
5
5
5
5
5
5
5
5
5
5
5
5
5
5
5
5
5
5
5
5
5
5
5
5
5
5
5
5
5
5
5
5
5
5
5
5
5
5
5
5
5
5
5
5
5
5
5
5
5
5
5
5
5
5
5
5
5
5
5
5
5
5
5
5
5
5
5
5
5
5
5
5
5
5
5
5
5
5
5
5
5
5
5
5
5
5
5
5
5
5
5
5
5
5
5
5
5
5
5
5
5
5
5
5
5
5
5
5
5
5
5
5
5
5
5
5
5
5
5
5
5
5
5
5
5
CELL_DATA 152
SCALARS patches float
LOOKUP_TABLE default
0
0
0
0
0
0
0
0
0
0
0
0
0
0
0
0
0
0
0
0
0
0
0
0
0
0
0
0
0
0
0
0
0
0
0
0
0
0
0
0
0
0
0
0
0
0
0
0
0
0
0
0
0
0
0
0
0
0
0
0
0
0
0
0
0
0
0
0
0
0
0
0
0
0
0
0
0
0
0
0
0
0
0
0
0
1
1
1
1
1
1
1
1
1
1
1
1
1
1
1
1
1
1
1
1
1
1
1
1
1
1
1
1
1
1
2
2
2
2
2
2
2
2
2
2
2
2
2
3
3
3
3
3
3
3
3
3
3
3
3
3
3
4
4
4
4
4
4
4
4
4
4
