# vtk DataFile Version 3.1 
for LSEConsole
ASCII
DATASET UNSTRUCTURED_GRID
POINTS 32 FLOAT
0.341986	0.246167	-0.098992
0.355362	0.29859	-0.120725
0.355688	0.238066	-0.133499
0.337108	0.186758	-0.10777
0.341403	0.197174	-0.170418
0.346715	0.277951	-0.136957
0.338832	0.173989	-0.133796
0.332103	0.169316	-0.15229
0.373388	0.312864	-0.107534
0.357241	0.201497	-0.139697
0.34831	0.240804	-0.115269
0.348739	0.2138	-0.104993
0.350764	0.280386	-0.10351
0.321444	0.166733	-0.110733
0.315052	0.151488	-0.130839
0.353563	0.208531	-0.12174
0.354638	0.228301	-0.161178
0.346216	0.264382	-0.119189
0.364735	0.30563	-0.111884
0.363103	0.298173	-0.105438
0.350289	0.250885	-0.147249
0.349322	0.199335	-0.155057
0.315973	0.157806	-0.118468
0.303142	0.143181	-0.1196
0.306591	0.149229	-0.116262
0.311906	0.155475	-0.114323
0.310821	0.150358	-0.12355
0.315512	0.154647	-0.124653
0.303713	0.22654	-0.129933
0.23461	0.223576	-0.162664
0.316467	0.244538	-0.146872
0.293052	0.187977	-0.150894
CELLS 60 240
3 0 10 17 
3 0 17 12 
3 0 11 10 
3 1 19 12 
3 1 12 17 
3 1 17 5 
3 2 16 20 
3 2 20 5 
3 2 5 17 
3 2 17 10 
3 2 10 11 
3 2 11 15 
3 2 15 9 
3 2 9 16 
3 3 6 9 
3 3 9 15 
3 3 15 11 
3 3 13 6 
3 4 16 21 
3 4 21 6 
3 4 6 7 
3 6 13 22 
3 6 14 7 
3 18 8 19 
3 1 18 19 
3 21 16 9 
3 21 9 6 
3 6 22 27 
3 24 23 26 
3 24 26 22 
3 25 22 13 
3 25 24 22 
3 26 14 27 
3 26 23 14 
3 6 27 14 
3 26 27 22 
3 28 8 29 
3 28 29 23 
3 28 23 24 
3 28 24 25 
3 28 25 13 
3 28 13 3 
3 28 3 11 
3 28 11 0 
3 28 0 12 
3 28 12 19 
3 28 19 8 
3 30 8 18 
3 30 18 1 
3 30 1 5 
3 30 5 20 
3 30 20 16 
3 30 16 4 
3 30 4 29 
3 30 29 8 
3 31 4 7 
3 31 7 14 
3 31 14 23 
3 31 23 29 
3 31 29 4 
CELL_TYPES 60
5
5
5
5
5
5
5
5
5
5
5
5
5
5
5
5
5
5
5
5
5
5
5
5
5
5
5
5
5
5
5
5
5
5
5
5
5
5
5
5
5
5
5
5
5
5
5
5
5
5
5
5
5
5
5
5
5
5
5
5
CELL_DATA 60
SCALARS patches float
LOOKUP_TABLE default
0
0
0
0
0
0
0
0
0
0
0
0
0
0
0
0
0
0
0
0
0
0
0
0
0
0
0
0
0
0
0
0
0
0
0
0
1
1
1
1
1
1
1
1
1
1
1
2
2
2
2
2
2
2
2
3
3
3
3
3
