# vtk DataFile Version 3.1 
for LSEConsole
ASCII
DATASET UNSTRUCTURED_GRID
POINTS 32 FLOAT
0	0	3.08548251
0	1.47150289	0
0	3.28296773	1.36891688
0	0	5.67045317
0	8	0
0	2.99102274	0
0	2.82011807	4.22292016
0	4.77319276	3.22680724
0	0	0
0	3.88642798	2.32180339
0	1.3781611	2.45521079
0	0	4.46054788
0	0	1.62814638
0	0	6.71781807
0	1.71675367	6.28324633
0	1.92373787	3.38236769
0	6.07269465	0
0	1.54932551	1.38908619
0	0.664453089	0
0	0	0.738821303
0	4.5947519	0
0	5.7694544	1.27041193
0	0.542752415	6.80770228
0	0	8
0	0	7.68405418
0	0	7.33920796
0	0.811066534	7.02075398
0	1.12152454	6.55223041
2.94512886	0	2.40726222
8	0	0
2.41958087	2.84137698	0
2.77017383	2.34205563	2.62204476
CELLS 60 240
3 0 10 17 
3 0 17 12 
3 0 11 10 
3 1 19 12 
3 1 12 17 
3 1 17 5 
3 2 16 20 
3 2 20 5 
3 2 5 17 
3 2 17 10 
3 2 10 11 
3 2 11 15 
3 2 15 9 
3 2 9 16 
3 3 6 9 
3 3 9 15 
3 3 15 11 
3 3 13 6 
3 4 16 21 
3 4 21 6 
3 4 6 7 
3 6 13 22 
3 6 14 7 
3 18 8 19 
3 1 18 19 
3 21 16 9 
3 21 9 6 
3 6 22 27 
3 24 23 26 
3 24 26 22 
3 25 22 13 
3 25 24 22 
3 26 14 27 
3 26 23 14 
3 6 27 14 
3 26 27 22 
3 28 8 29 
3 28 29 23 
3 28 23 24 
3 28 24 25 
3 28 25 13 
3 28 13 3 
3 28 3 11 
3 28 11 0 
3 28 0 12 
3 28 12 19 
3 28 19 8 
3 30 8 18 
3 30 18 1 
3 30 1 5 
3 30 5 20 
3 30 20 16 
3 30 16 4 
3 30 4 29 
3 30 29 8 
3 31 4 7 
3 31 7 14 
3 31 14 23 
3 31 23 29 
3 31 29 4 
CELL_TYPES 60
5
5
5
5
5
5
5
5
5
5
5
5
5
5
5
5
5
5
5
5
5
5
5
5
5
5
5
5
5
5
5
5
5
5
5
5
5
5
5
5
5
5
5
5
5
5
5
5
5
5
5
5
5
5
5
5
5
5
5
5
CELL_DATA 60
SCALARS patches float
LOOKUP_TABLE default
0
0
0
0
0
0
0
0
0
0
0
0
0
0
0
0
0
0
0
0
0
0
0
0
0
0
0
0
0
0
0
0
0
0
0
0
1
1
1
1
1
1
1
1
1
1
1
2
2
2
2
2
2
2
2
3
3
3
3
3
