# vtk DataFile Version 3.1 
for LSEConsole
ASCII
DATASET UNSTRUCTURED_GRID
POINTS 55 FLOAT
0	5.15616057	2.84383943
0	3.22626595	3.16145241
0	2.83623217	0
0	0	1.61300271
0	3.87151671	0.784186294
0	5.98395542	1.20016621
0	0	8
0	3.26538628	4.28640764
0	2.86118332	5.13881668
0	0	6.82742583
0	1.99537788	0
0	0.972210218	3.46029668
0	5.15339263	0
0	2.56908363	1.33399966
0	1.24731071	0.873630292
0	2.60934536	2.38105183
0	0.567537733	0
0	1.18455787	4.84466712
0	1.60254823	5.89266995
0	2.24520328	4.71008463
0	0.978444443	0
0	0	5.11692371
0	4.10680978	1.57602848
0	1.44021436	3.85491266
0	7.07101414	0
0	2.5208457	3.20587309
0	4.81634444	1.71784962
0	4.2235172	2.92567681
0	6.12501235	0
0	8	0
0	0	2.97298331
0	1.40337593	0
0	4.58120266	0
0	4.21830149	0
0	3.50806232	0
0	3.85709593	0
0	0.959041252	0
0	0.93030171	0.0640714878
0	0	0
0	1.61403248	0.724600592
0	2.27687775	0
0	1.06541417	1.17763145
0	0.963009804	1.09584327
0	1.69979014	0
0	1.23210399	0.639555343
0	0.997912344	0
0	0	0.382583678
0	0	0.707311837
0	0	7.24227516
0	0	5.79187533
0	0	4.34009828
2.1179674	0	2.96258318
8	0	0
2.35494235	2.72692349	0
2.86671189	2.58525359	2.54803453
CELLS 106 424
3 0 7 8 
3 12 32 4 
3 1 26 22 
3 1 22 25 
3 1 25 17 
3 1 17 19 
3 13 34 2 
3 3 36 16 
3 3 16 47 
3 4 35 13 
3 4 13 15 
3 4 15 22 
3 4 22 12 
3 6 18 48 
3 6 8 18 
3 7 19 18 
3 7 18 8 
3 9 18 19 
3 9 19 17 
3 11 50 21 
3 11 21 23 
3 11 23 15 
3 11 15 13 
3 15 23 25 
3 15 25 22 
3 16 46 47 
3 17 25 23 
3 17 23 21 
3 27 1 19 
3 27 19 7 
3 27 5 26 
3 27 26 1 
3 27 7 0 
3 27 0 5 
3 28 12 22 
3 28 22 26 
3 28 26 5 
3 28 5 24 
3 29 24 5 
3 29 5 0 
3 2 39 30 
3 14 39 10 
3 30 11 13 
3 30 13 2 
3 30 42 3 
3 10 44 14 
3 31 37 3 
3 3 44 31 
3 33 4 32 
3 13 35 34 
3 37 20 36 
3 3 37 36 
3 4 33 35 
3 16 38 46 
3 40 10 39 
3 2 40 39 
3 41 30 39 
3 14 41 39 
3 41 14 42 
3 30 41 42 
3 43 31 44 
3 10 43 44 
3 45 20 37 
3 31 45 37 
3 42 14 44 
3 3 42 44 
3 48 18 9 
3 49 9 17 
3 49 17 21 
3 30 50 11 
3 51 38 52 
3 51 52 6 
3 51 6 48 
3 51 48 9 
3 51 9 49 
3 51 49 21 
3 51 21 50 
3 51 50 30 
3 51 30 3 
3 51 3 47 
3 51 47 46 
3 51 46 38 
3 53 38 16 
3 53 16 36 
3 53 36 20 
3 53 20 45 
3 53 45 31 
3 53 31 43 
3 53 43 10 
3 53 10 40 
3 53 40 2 
3 53 2 34 
3 53 34 35 
3 53 35 33 
3 53 33 32 
3 53 32 12 
3 53 12 28 
3 53 28 24 
3 53 24 29 
3 53 29 52 
3 53 52 38 
3 54 29 0 
3 54 0 8 
3 54 8 6 
3 54 6 52 
3 54 52 29 
CELL_TYPES 106
5
5
5
5
5
5
5
5
5
5
5
5
5
5
5
5
5
5
5
5
5
5
5
5
5
5
5
5
5
5
5
5
5
5
5
5
5
5
5
5
5
5
5
5
5
5
5
5
5
5
5
5
5
5
5
5
5
5
5
5
5
5
5
5
5
5
5
5
5
5
5
5
5
5
5
5
5
5
5
5
5
5
5
5
5
5
5
5
5
5
5
5
5
5
5
5
5
5
5
5
5
5
5
5
5
5
CELL_DATA 106
SCALARS patches float
LOOKUP_TABLE default
0
0
0
0
0
0
0
0
0
0
0
0
0
0
0
0
0
0
0
0
0
0
0
0
0
0
0
0
0
0
0
0
0
0
0
0
0
0
0
0
0
0
0
0
0
0
0
0
0
0
0
0
0
0
0
0
0
0
0
0
0
0
0
0
0
0
0
0
0
0
1
1
1
1
1
1
1
1
1
1
1
1
2
2
2
2
2
2
2
2
2
2
2
2
2
2
2
2
2
2
2
3
3
3
3
3
