# vtk DataFile Version 3.1 
for LSEConsole
ASCII
DATASET UNSTRUCTURED_GRID
POINTS 55 FLOAT
-0.167753	0.14949	-0.276801
-0.172421	0.198201	-0.270852
-0.161228	0.283135	-0.221425
-0.165858	0.33308	-0.238238
-0.172785	0.23258	-0.23023
-0.179646	0.155461	-0.251948
-0.143421	0.192426	-0.332603
-0.171341	0.170304	-0.295043
-0.159935	0.161747	-0.307848
-0.158221	0.216539	-0.313386
-0.169285	0.309603	-0.224126
-0.160866	0.259046	-0.257565
-0.179096	0.211562	-0.225078
-0.164014	0.259348	-0.234469
-0.165781	0.310337	-0.231949
-0.169668	0.234978	-0.250735
-0.179142	0.353913	-0.224849
-0.165398	0.224498	-0.286568
-0.163979	0.187049	-0.312831
-0.174345	0.194719	-0.295465
-0.177975	0.341238	-0.230035
-0.161384	0.251367	-0.279169
-0.171584	0.206508	-0.24591
-0.166647	0.237305	-0.26873
-0.174586	0.15061	-0.234567
-0.171243	0.219369	-0.265681
-0.178021	0.181267	-0.254244
-0.177508	0.172522	-0.27438
-0.185361	0.180021	-0.229931
-0.152343	0.130265	-0.242195
-0.147623	0.297899	-0.240068
-0.17659	0.327104	-0.229352
-0.183986	0.229982	-0.223184
-0.17865	0.240816	-0.221882
-0.171538	0.263169	-0.220572
-0.175439	0.252421	-0.222969
-0.178053	0.341866	-0.229889
-0.177544	0.34122	-0.230321
-0.185514	0.37177	-0.223674
-0.161417	0.304162	-0.228089
-0.164903	0.301264	-0.224316
-0.162876	0.308725	-0.233291
-0.165497	0.31391	-0.23432
-0.172475	0.318206	-0.227827
-0.16888	0.316873	-0.231745
-0.177838	0.340601	-0.230027
-0.178951	0.363638	-0.227589
-0.172475	0.357591	-0.230937
-0.152985	0.208008	-0.320185
-0.156282	0.239899	-0.294336
-0.154491	0.266855	-0.264135
-0.131459	0.265063	-0.266169
-0.0654418	0.230993	-0.242229
-0.134433	0.244343	-0.236033
-0.120402	0.184561	-0.272342
CELLS 106 424
3 0 7 8 
3 12 32 4 
3 1 26 22 
3 1 22 25 
3 1 25 17 
3 1 17 19 
3 13 34 2 
3 3 36 16 
3 3 16 47 
3 4 35 13 
3 4 13 15 
3 4 15 22 
3 4 22 12 
3 6 18 48 
3 6 8 18 
3 7 19 18 
3 7 18 8 
3 9 18 19 
3 9 19 17 
3 11 50 21 
3 11 21 23 
3 11 23 15 
3 11 15 13 
3 15 23 25 
3 15 25 22 
3 16 46 47 
3 17 25 23 
3 17 23 21 
3 27 1 19 
3 27 19 7 
3 27 5 26 
3 27 26 1 
3 27 7 0 
3 27 0 5 
3 28 12 22 
3 28 22 26 
3 28 26 5 
3 28 5 24 
3 29 24 5 
3 29 5 0 
3 2 39 30 
3 14 39 10 
3 30 11 13 
3 30 13 2 
3 30 42 3 
3 10 44 14 
3 31 37 3 
3 3 44 31 
3 33 4 32 
3 13 35 34 
3 37 20 36 
3 3 37 36 
3 4 33 35 
3 16 38 46 
3 40 10 39 
3 2 40 39 
3 41 30 39 
3 14 41 39 
3 41 14 42 
3 30 41 42 
3 43 31 44 
3 10 43 44 
3 45 20 37 
3 31 45 37 
3 42 14 44 
3 3 42 44 
3 48 18 9 
3 49 9 17 
3 49 17 21 
3 30 50 11 
3 51 38 52 
3 51 52 6 
3 51 6 48 
3 51 48 9 
3 51 9 49 
3 51 49 21 
3 51 21 50 
3 51 50 30 
3 51 30 3 
3 51 3 47 
3 51 47 46 
3 51 46 38 
3 53 38 16 
3 53 16 36 
3 53 36 20 
3 53 20 45 
3 53 45 31 
3 53 31 43 
3 53 43 10 
3 53 10 40 
3 53 40 2 
3 53 2 34 
3 53 34 35 
3 53 35 33 
3 53 33 32 
3 53 32 12 
3 53 12 28 
3 53 28 24 
3 53 24 29 
3 53 29 52 
3 53 52 38 
3 54 29 0 
3 54 0 8 
3 54 8 6 
3 54 6 52 
3 54 52 29 
CELL_TYPES 106
5
5
5
5
5
5
5
5
5
5
5
5
5
5
5
5
5
5
5
5
5
5
5
5
5
5
5
5
5
5
5
5
5
5
5
5
5
5
5
5
5
5
5
5
5
5
5
5
5
5
5
5
5
5
5
5
5
5
5
5
5
5
5
5
5
5
5
5
5
5
5
5
5
5
5
5
5
5
5
5
5
5
5
5
5
5
5
5
5
5
5
5
5
5
5
5
5
5
5
5
5
5
5
5
5
5
CELL_DATA 106
SCALARS patches float
LOOKUP_TABLE default
0
0
0
0
0
0
0
0
0
0
0
0
0
0
0
0
0
0
0
0
0
0
0
0
0
0
0
0
0
0
0
0
0
0
0
0
0
0
0
0
0
0
0
0
0
0
0
0
0
0
0
0
0
0
0
0
0
0
0
0
0
0
0
0
0
0
0
0
0
0
1
1
1
1
1
1
1
1
1
1
1
1
2
2
2
2
2
2
2
2
2
2
2
2
2
2
2
2
2
2
2
3
3
3
3
3
