# vtk DataFile Version 3.1 
for LSEConsole
ASCII
DATASET UNSTRUCTURED_GRID
POINTS 71 FLOAT
0	8	0
0	8	8
1.14292392	6.85707608	0
2.28567506	5.71432494	0
3.42857756	4.57142244	0
4.57143243	3.42856757	0
5.71428729	2.28571271	0
6.85715123	1.14284877	0
8	0	0
0	8	1.6
0	8	3.2
0	8	4.8
0	8	6.4
1.14292392	6.85707608	8
2.28567506	5.71432494	8
3.42857756	4.57142244	8
4.57143243	3.42856757	8
5.71428729	2.28571271	8
6.85715123	1.14284877	8
8	0	8
0.87725678	4.50596008	0
2.66110826	2.70394805	0
3.82031412	1.60886802	0
5.08981204	0.947992463	0
0	5.50297576	0
2.02351195	3.98056423	0
5.65584832	0	0
0	3.14564658	0
1.14478752	0	0
0	1.79493824	0
3.53502285	0	0
8	0	6.4
8	0	4.8
8	0	3.2
8	0	1.6
6.85715123	1.14284877	6.4
6.85715123	1.14284877	4.8
6.85715123	1.14284877	3.2
6.85715123	1.14284877	1.6
5.71428729	2.28571271	6.4
5.71428729	2.28571271	4.8
5.71428729	2.28571271	3.2
5.71428729	2.28571271	1.6
4.57143243	3.42856757	6.4
4.57143243	3.42856757	4.8
4.57143243	3.42856757	3.2
4.57143243	3.42856757	1.6
3.42857756	4.57142244	6.4
3.42857756	4.57142244	4.8
3.42857756	4.57142244	3.2
3.42857756	4.57142244	1.6
2.28567506	5.71432494	6.4
2.28567506	5.71432494	4.8
2.28567506	5.71432494	3.2
2.28567506	5.71432494	1.6
1.14292392	6.85707608	6.4
1.14292392	6.85707608	4.8
1.14292392	6.85707608	3.2
1.14292392	6.85707608	1.6
0	4.06337314	8
2.56093651	1.99538585	8
4.60446701	0	8
6.1636901	0	8
0	5.37056208	8
3.97974337	1.54917618	8
0	1.96163521	8
2.38476073	0	8
0	0	8
0	0	0
3.99906158	0	4.00004052
0	3.99533791	3.99996825
CELLS 138 552
3 21 4 5 
3 22 21 5 
3 23 22 6 
3 24 2 20 
3 29 21 28 
3 20 2 3 
3 25 3 4 
3 22 5 6 
3 23 6 7 
3 26 7 8 
3 24 0 2 
3 27 24 20 
3 25 20 3 
3 25 4 21 
3 26 23 7 
3 29 20 25 
3 28 21 22 
3 30 22 23 
3 29 27 20 
3 29 25 21 
3 29 28 68 
3 30 28 22 
3 30 23 26 
3 19 31 35 
3 35 18 19 
3 31 32 36 
3 36 35 31 
3 32 33 37 
3 37 36 32 
3 33 34 38 
3 38 37 33 
3 34 8 7 
3 7 38 34 
3 18 35 39 
3 39 17 18 
3 35 36 40 
3 40 39 35 
3 36 37 41 
3 41 40 36 
3 37 38 42 
3 42 41 37 
3 38 7 6 
3 6 42 38 
3 17 39 43 
3 43 16 17 
3 39 40 44 
3 44 43 39 
3 40 41 45 
3 45 44 40 
3 41 42 46 
3 46 45 41 
3 42 6 5 
3 5 46 42 
3 16 43 47 
3 47 15 16 
3 43 44 48 
3 48 47 43 
3 44 45 49 
3 49 48 44 
3 45 46 50 
3 50 49 45 
3 46 5 4 
3 4 50 46 
3 15 47 51 
3 51 14 15 
3 47 48 52 
3 52 51 47 
3 48 49 53 
3 53 52 48 
3 49 50 54 
3 54 53 49 
3 50 4 3 
3 3 54 50 
3 14 51 55 
3 55 13 14 
3 51 52 56 
3 56 55 51 
3 52 53 57 
3 57 56 52 
3 53 54 58 
3 58 57 53 
3 54 3 2 
3 2 58 54 
3 13 55 12 
3 12 1 13 
3 55 56 11 
3 11 12 55 
3 56 57 10 
3 10 11 56 
3 57 58 9 
3 9 10 57 
3 58 2 0 
3 0 9 58 
3 65 14 59 
3 62 18 61 
3 64 16 60 
3 66 64 60 
3 63 59 13 
3 59 14 13 
3 63 13 1 
3 60 16 15 
3 65 60 15 
3 61 18 17 
3 64 61 17 
3 62 19 18 
3 64 17 16 
3 67 66 60 
3 65 15 14 
3 66 61 64 
3 67 60 65 
3 69 68 28 
3 69 28 30 
3 69 30 26 
3 69 26 8 
3 69 8 34 
3 69 34 33 
3 69 33 32 
3 69 32 31 
3 69 31 19 
3 69 19 62 
3 69 62 61 
3 69 61 66 
3 69 66 67 
3 69 67 68 
3 70 0 24 
3 70 24 27 
3 70 27 29 
3 70 29 68 
3 70 68 67 
3 70 67 65 
3 70 65 59 
3 70 59 63 
3 70 63 1 
3 70 1 12 
3 70 12 11 
3 70 11 10 
3 70 10 9 
3 70 9 0 
CELL_TYPES 138
5
5
5
5
5
5
5
5
5
5
5
5
5
5
5
5
5
5
5
5
5
5
5
5
5
5
5
5
5
5
5
5
5
5
5
5
5
5
5
5
5
5
5
5
5
5
5
5
5
5
5
5
5
5
5
5
5
5
5
5
5
5
5
5
5
5
5
5
5
5
5
5
5
5
5
5
5
5
5
5
5
5
5
5
5
5
5
5
5
5
5
5
5
5
5
5
5
5
5
5
5
5
5
5
5
5
5
5
5
5
5
5
5
5
5
5
5
5
5
5
5
5
5
5
5
5
5
5
5
5
5
5
5
5
5
5
5
5
CELL_DATA 138
SCALARS patches float
LOOKUP_TABLE default
0
0
0
0
0
0
0
0
0
0
0
0
0
0
0
0
0
0
0
0
0
0
0
1
1
1
1
1
1
1
1
1
1
1
1
1
1
1
1
1
1
1
1
1
1
1
1
1
1
1
1
1
1
1
1
1
1
1
1
1
1
1
1
1
1
1
1
1
1
1
1
1
1
1
1
1
1
1
1
1
1
1
1
1
1
1
1
1
1
1
1
1
1
2
2
2
2
2
2
2
2
2
2
2
2
2
2
2
2
2
3
3
3
3
3
3
3
3
3
3
3
3
3
3
4
4
4
4
4
4
4
4
4
4
4
4
4
4
