# vtk DataFile Version 3.1 
for LSEConsole
ASCII
DATASET UNSTRUCTURED_GRID
POINTS 74 FLOAT
0	8	0
0	8	8
0	0	0
0	1.14284877	0
0	2.28571271	0
0	3.42856757	0
0	4.57142244	0
0	5.71432494	0
0	6.85707608	0
0	8	6.4
0	8	4.8
0	8	3.2
0	8	1.6
0	0	8
0	1.14284877	8
0	2.28571271	8
0	3.42856757	8
0	4.57142244	8
0	5.71432494	8
0	6.85707608	8
2.57820478	1.58518172	0
2.63487127	2.68479855	0
2.06594417	3.9299631	0
2.54457814	5.45542186	0
2.31473849	0	0
1.93275394	0.951188624	0
2.62737446	4.4747507	0
4.97223771	3.02776229	0
6.75934324	0	0
8	0	0
4.41007954	0	0
4.87568737	2.27013181	0
0	6.85707608	6.4
0	6.85707608	4.8
0	6.85707608	3.2
0	6.85707608	1.6
0	5.71432494	6.4
0	5.71432494	4.8
0	5.71432494	3.2
0	5.71432494	1.6
0	4.57142244	6.4
0	4.57142244	4.8
0	4.57142244	3.2
0	4.57142244	1.6
0	3.42856757	6.4
0	3.42856757	4.8
0	3.42856757	3.2
0	3.42856757	1.6
0	2.28571271	6.4
0	2.28571271	4.8
0	2.28571271	3.2
0	2.28571271	1.6
0	1.14284877	6.4
0	1.14284877	4.8
0	1.14284877	3.2
0	1.14284877	1.6
0	0	6.4
0	0	4.8
0	0	3.2
0	0	1.6
2.61675978	2.68602377	8
2.31131228	0	8
2.72233227	4.45488567	8
2.54654272	5.45345728	8
1.94507628	0.933106292	8
2.29081112	4.02364089	8
2.50845911	1.61820358	8
4.95109069	3.04890931	8
6.72285369	0	8
8	0	8
5.52383692	2.06234324	8
4.62728821	0	8
3.99988563	0	4
4.00012124	3.99987876	3.99999996
CELLS 144 576
3 21 5 6 
3 31 21 22 
3 22 21 6 
3 27 26 23 
3 25 4 20 
3 20 4 5 
3 21 20 5 
3 22 6 7 
3 26 7 8 
3 31 27 29 
3 23 8 0 
3 24 2 3 
3 25 24 3 
3 25 3 4 
3 30 20 28 
3 26 22 7 
3 26 8 23 
3 30 24 25 
3 31 26 27 
3 28 20 21 
3 31 29 28 
3 30 25 20 
3 31 28 21 
3 31 22 26 
3 1 9 32 
3 32 19 1 
3 9 10 33 
3 33 32 9 
3 10 11 34 
3 34 33 10 
3 11 12 35 
3 35 34 11 
3 12 0 8 
3 8 35 12 
3 19 32 36 
3 36 18 19 
3 32 33 37 
3 37 36 32 
3 33 34 38 
3 38 37 33 
3 34 35 39 
3 39 38 34 
3 35 8 7 
3 7 39 35 
3 18 36 40 
3 40 17 18 
3 36 37 41 
3 41 40 36 
3 37 38 42 
3 42 41 37 
3 38 39 43 
3 43 42 38 
3 39 7 6 
3 6 43 39 
3 17 40 44 
3 44 16 17 
3 40 41 45 
3 45 44 40 
3 41 42 46 
3 46 45 41 
3 42 43 47 
3 47 46 42 
3 43 6 5 
3 5 47 43 
3 16 44 48 
3 48 15 16 
3 44 45 49 
3 49 48 44 
3 45 46 50 
3 50 49 45 
3 46 47 51 
3 51 50 46 
3 47 5 4 
3 4 51 47 
3 15 48 52 
3 52 14 15 
3 48 49 53 
3 53 52 48 
3 49 50 54 
3 54 53 49 
3 50 51 55 
3 55 54 50 
3 51 4 3 
3 3 55 51 
3 14 52 56 
3 56 13 14 
3 52 53 57 
3 57 56 52 
3 53 54 58 
3 58 57 53 
3 54 55 59 
3 59 58 54 
3 55 3 2 
3 2 59 55 
3 70 62 65 
3 70 69 67 
3 67 63 62 
3 64 14 61 
3 71 66 64 
3 63 19 62 
3 65 17 60 
3 60 17 16 
3 66 16 15 
3 61 14 13 
3 62 19 18 
3 65 62 18 
3 63 1 19 
3 64 15 14 
3 65 18 17 
3 70 60 68 
3 66 60 16 
3 66 15 64 
3 68 60 66 
3 70 67 62 
3 70 65 60 
3 70 68 69 
3 71 68 66 
3 71 64 61 
3 72 2 24 
3 72 24 30 
3 72 30 28 
3 72 28 29 
3 72 29 69 
3 72 69 68 
3 72 68 71 
3 72 71 61 
3 72 61 13 
3 72 13 56 
3 72 56 57 
3 72 57 58 
3 72 58 59 
3 72 59 2 
3 73 29 27 
3 73 27 23 
3 73 23 0 
3 73 0 12 
3 73 12 11 
3 73 11 10 
3 73 10 9 
3 73 9 1 
3 73 1 63 
3 73 63 67 
3 73 67 69 
3 73 69 29 
CELL_TYPES 144
5
5
5
5
5
5
5
5
5
5
5
5
5
5
5
5
5
5
5
5
5
5
5
5
5
5
5
5
5
5
5
5
5
5
5
5
5
5
5
5
5
5
5
5
5
5
5
5
5
5
5
5
5
5
5
5
5
5
5
5
5
5
5
5
5
5
5
5
5
5
5
5
5
5
5
5
5
5
5
5
5
5
5
5
5
5
5
5
5
5
5
5
5
5
5
5
5
5
5
5
5
5
5
5
5
5
5
5
5
5
5
5
5
5
5
5
5
5
5
5
5
5
5
5
5
5
5
5
5
5
5
5
5
5
5
5
5
5
5
5
5
5
5
5
CELL_DATA 144
SCALARS patches float
LOOKUP_TABLE default
0
0
0
0
0
0
0
0
0
0
0
0
0
0
0
0
0
0
0
0
0
0
0
0
1
1
1
1
1
1
1
1
1
1
1
1
1
1
1
1
1
1
1
1
1
1
1
1
1
1
1
1
1
1
1
1
1
1
1
1
1
1
1
1
1
1
1
1
1
1
1
1
1
1
1
1
1
1
1
1
1
1
1
1
1
1
1
1
1
1
1
1
1
1
2
2
2
2
2
2
2
2
2
2
2
2
2
2
2
2
2
2
2
2
2
2
2
2
3
3
3
3
3
3
3
3
3
3
3
3
3
3
4
4
4
4
4
4
4
4
4
4
4
4
