# vtk DataFile Version 3.1 
for LSEConsole
ASCII
DATASET UNSTRUCTURED_GRID
POINTS 73 FLOAT
8	0	0
8	0	8
0	8	0
1.14284877	6.85715123	0
2.28571271	5.71428729	0
3.42856757	4.57143243	0
4.57142244	3.42857756	0
5.71432494	2.28567506	0
6.85707608	1.14292392	0
0	8	8
1.14284877	6.85715123	8
2.28571271	5.71428729	8
3.42856757	4.57143243	8
4.57142244	3.42857756	8
5.71432494	2.28567506	8
6.85707608	1.14292392	8
8	0	6.4
8	0	4.8
8	0	3.2
8	0	1.6
1.60704989	3.86849828	0
2.7077351	2.71386028	0
3.94481614	2.02789971	0
5.44747712	0	0
0	5.70173774	0
0.965836034	5.13781543	0
4.48801012	0.924119579	0
3.01239239	0	0
0	1.29730407	0
0	0	0
0	3.6248094	0
2.30773418	0.912349452	0
0	8	1.6
0	8	3.2
0	8	4.8
0	8	6.4
1.14284877	6.85715123	1.6
1.14284877	6.85715123	3.2
1.14284877	6.85715123	4.8
1.14284877	6.85715123	6.4
2.28571271	5.71428729	1.6
2.28571271	5.71428729	3.2
2.28571271	5.71428729	4.8
2.28571271	5.71428729	6.4
3.42856757	4.57143243	1.6
3.42856757	4.57143243	3.2
3.42856757	4.57143243	4.8
3.42856757	4.57143243	6.4
4.57142244	3.42857756	1.6
4.57142244	3.42857756	3.2
4.57142244	3.42857756	4.8
4.57142244	3.42857756	6.4
5.71432494	2.28567506	1.6
5.71432494	2.28567506	3.2
5.71432494	2.28567506	4.8
5.71432494	2.28567506	6.4
6.85707608	1.14292392	1.6
6.85707608	1.14292392	3.2
6.85707608	1.14292392	4.8
6.85707608	1.14292392	6.4
3.94532438	1.99539478	8
0.945304277	5.08983108	8
4.05208263	0	8
1.61693338	3.83452564	8
5.50672902	0	8
2.72289407	2.68410853	8
0	5.65703991	8
0	1.14745968	8
1.7960284	0	8
0	3.53779884	8
0	0	8
3.99960956	0	4.00000062
0	3.99939015	3.99999977
CELLS 142 568
3 21 5 6 
3 31 21 22 
3 22 21 6 
3 27 26 23 
3 25 4 20 
3 20 4 5 
3 21 20 5 
3 22 6 7 
3 26 7 8 
3 31 27 29 
3 23 8 0 
3 24 2 3 
3 25 24 3 
3 25 3 4 
3 30 20 28 
3 26 22 7 
3 26 8 23 
3 30 24 25 
3 31 26 27 
3 28 20 21 
3 31 29 28 
3 30 25 20 
3 31 28 21 
3 31 22 26 
3 2 32 36 
3 36 3 2 
3 32 33 37 
3 37 36 32 
3 33 34 38 
3 38 37 33 
3 34 35 39 
3 39 38 34 
3 35 9 10 
3 10 39 35 
3 3 36 40 
3 40 4 3 
3 36 37 41 
3 41 40 36 
3 37 38 42 
3 42 41 37 
3 38 39 43 
3 43 42 38 
3 39 10 11 
3 11 43 39 
3 4 40 44 
3 44 5 4 
3 40 41 45 
3 45 44 40 
3 41 42 46 
3 46 45 41 
3 42 43 47 
3 47 46 42 
3 43 11 12 
3 12 47 43 
3 5 44 48 
3 48 6 5 
3 44 45 49 
3 49 48 44 
3 45 46 50 
3 50 49 45 
3 46 47 51 
3 51 50 46 
3 47 12 13 
3 13 51 47 
3 6 48 52 
3 52 7 6 
3 48 49 53 
3 53 52 48 
3 49 50 54 
3 54 53 49 
3 50 51 55 
3 55 54 50 
3 51 13 14 
3 14 55 51 
3 7 52 56 
3 56 8 7 
3 52 53 57 
3 57 56 52 
3 53 54 58 
3 58 57 53 
3 54 55 59 
3 59 58 54 
3 55 14 15 
3 15 59 55 
3 8 56 19 
3 19 0 8 
3 56 57 18 
3 18 19 56 
3 57 58 17 
3 17 18 57 
3 58 59 16 
3 16 17 58 
3 59 15 1 
3 1 16 59 
3 62 14 60 
3 68 62 60 
3 68 65 67 
3 63 11 61 
3 64 15 62 
3 60 14 13 
3 65 13 12 
3 61 11 10 
3 66 10 9 
3 62 15 14 
3 67 65 63 
3 63 12 11 
3 64 1 15 
3 65 60 13 
3 65 12 63 
3 66 61 10 
3 69 63 61 
3 68 60 65 
3 68 67 70 
3 69 67 63 
3 69 61 66 
3 71 29 27 
3 71 27 23 
3 71 23 0 
3 71 0 19 
3 71 19 18 
3 71 18 17 
3 71 17 16 
3 71 16 1 
3 71 1 64 
3 71 64 62 
3 71 62 68 
3 71 68 70 
3 71 70 29 
3 72 2 24 
3 72 24 30 
3 72 30 28 
3 72 28 29 
3 72 29 70 
3 72 70 67 
3 72 67 69 
3 72 69 66 
3 72 66 9 
3 72 9 35 
3 72 35 34 
3 72 34 33 
3 72 33 32 
3 72 32 2 
CELL_TYPES 142
5
5
5
5
5
5
5
5
5
5
5
5
5
5
5
5
5
5
5
5
5
5
5
5
5
5
5
5
5
5
5
5
5
5
5
5
5
5
5
5
5
5
5
5
5
5
5
5
5
5
5
5
5
5
5
5
5
5
5
5
5
5
5
5
5
5
5
5
5
5
5
5
5
5
5
5
5
5
5
5
5
5
5
5
5
5
5
5
5
5
5
5
5
5
5
5
5
5
5
5
5
5
5
5
5
5
5
5
5
5
5
5
5
5
5
5
5
5
5
5
5
5
5
5
5
5
5
5
5
5
5
5
5
5
5
5
5
5
5
5
5
5
CELL_DATA 142
SCALARS patches float
LOOKUP_TABLE default
0
0
0
0
0
0
0
0
0
0
0
0
0
0
0
0
0
0
0
0
0
0
0
0
1
1
1
1
1
1
1
1
1
1
1
1
1
1
1
1
1
1
1
1
1
1
1
1
1
1
1
1
1
1
1
1
1
1
1
1
1
1
1
1
1
1
1
1
1
1
1
1
1
1
1
1
1
1
1
1
1
1
1
1
1
1
1
1
1
1
1
1
1
1
2
2
2
2
2
2
2
2
2
2
2
2
2
2
2
2
2
2
2
2
2
3
3
3
3
3
3
3
3
3
3
3
3
3
4
4
4
4
4
4
4
4
4
4
4
4
4
4
