# vtk DataFile Version 3.1 
for LSEConsole
ASCII
DATASET UNSTRUCTURED_GRID
POINTS 62 FLOAT
0.528762522	0	0
0	0	8
0	0	7.52589006
0	0	0
6.71004849	0	0
8	0	0
0.703512701	0	6.395947
0	0	6.64112395
3.71934805	0	4.28065195
7.40373943	0	0.596260565
5.28482801	0	0
6.13610595	0	0.325872262
6.89850827	0	1.10149173
5.55178596	0	1.1568755
2.68752969	0	3.94261935
4.24011031	0	3.75988969
3.13076336	0	4.86923664
0	0	5.06749678
1.93141428	0	4.64893423
0	0	4.31839677
0	0	3.55449792
1.21507068	0	4.01595422
2.41857763	0	4.28003828
2.28513805	0	0
2.4757045	0	5.5242955
0	0	2.77388201
0	0	2.15803743
2.0683777	0	2.74483892
3.79163758	0	2.96410254
4.78101523	0	3.21898477
0	0	1.73937053
1.25248831	0	1.94685788
2.34386906	0	1.76415377
3.12709139	0	2.29002308
2.50580269	0	3.42465892
4.31831537	0	2.25459579
1.39792177	0	0.5964278
1.4538078	0	0.218726428
3.60480252	0	0
3.92927913	0	0.515806349
5.25417795	0	2.74582205
5.64802834	0	2.35197166
0	0	5.73388879
0	0	6.08905791
0	0	1.09955316
0.571695586	0	1.38125956
1.0200419	0	0.991628712
1.73609071	0	1.24241713
0.885143079	0	7.11485692
1.19964599	0	6.80035401
1.77857753	0	6.22142247
6.30119365	0	1.69880635
3.98630414	0	1.17428385
4.89824539	0	1.85698492
0	0	0.266738374
0	0	0.416600545
0	0	0.477435638
0.474561506	0	7.52543849
2.75602032	2.34737079	0
0	8	0
0	4.5022321	2.0501957
1.73172095	4.31355016	1.95472889
CELLS 120 480
3 1 2 57 
3 0 54 3 
3 6 2 7 
3 5 9 4 
3 10 4 11 
3 9 11 4 
3 11 9 12 
3 13 11 12 
3 14 15 8 
3 16 17 18 
3 8 16 18 
3 18 17 19 
3 21 22 18 
3 18 19 21 
3 21 19 20 
3 21 14 22 
3 14 8 22 
3 8 18 22 
3 17 16 24 
3 27 25 26 
3 27 21 25 
3 25 21 20 
3 28 29 15 
3 14 28 15 
3 27 31 32 
3 31 27 26 
3 30 31 26 
3 27 33 34 
3 34 33 28 
3 27 32 33 
3 35 33 32 
3 35 28 33 
3 34 28 14 
3 34 14 21 
3 34 21 27 
3 36 0 37 
3 36 37 23 
3 37 0 23 
3 39 23 38 
3 39 38 10 
3 10 11 39 
3 11 13 39 
3 39 36 23 
3 35 41 40 
3 40 29 28 
3 28 35 40 
3 24 42 17 
3 6 43 42 
3 24 6 42 
3 6 7 43 
3 44 45 30 
3 44 0 36 
3 45 32 31 
3 30 45 31 
3 46 32 45 
3 46 45 44 
3 46 44 36 
3 46 47 32 
3 47 46 36 
3 39 47 36 
3 2 48 57 
3 48 2 6 
3 6 49 48 
3 6 24 50 
3 6 50 49 
3 12 51 13 
3 47 52 32 
3 52 47 39 
3 13 52 39 
3 35 52 53 
3 52 13 53 
3 32 52 35 
3 53 13 51 
3 51 41 53 
3 35 53 41 
3 54 0 55 
3 44 56 0 
3 56 55 0 
3 58 3 59 
3 58 59 5 
3 58 5 4 
3 58 4 10 
3 58 10 38 
3 58 38 23 
3 58 23 0 
3 58 0 3 
3 60 59 3 
3 60 3 54 
3 60 54 55 
3 60 55 56 
3 60 56 44 
3 60 44 30 
3 60 30 26 
3 60 26 25 
3 60 25 20 
3 60 20 19 
3 60 19 17 
3 60 17 42 
3 60 42 43 
3 60 43 7 
3 60 7 2 
3 60 2 1 
3 60 1 59 
3 61 59 1 
3 61 1 57 
3 61 57 48 
3 61 48 49 
3 61 49 50 
3 61 50 24 
3 61 24 16 
3 61 16 8 
3 61 8 15 
3 61 15 29 
3 61 29 40 
3 61 40 41 
3 61 41 51 
3 61 51 12 
3 61 12 9 
3 61 9 5 
3 61 5 59 
CELL_TYPES 120
5
5
5
5
5
5
5
5
5
5
5
5
5
5
5
5
5
5
5
5
5
5
5
5
5
5
5
5
5
5
5
5
5
5
5
5
5
5
5
5
5
5
5
5
5
5
5
5
5
5
5
5
5
5
5
5
5
5
5
5
5
5
5
5
5
5
5
5
5
5
5
5
5
5
5
5
5
5
5
5
5
5
5
5
5
5
5
5
5
5
5
5
5
5
5
5
5
5
5
5
5
5
5
5
5
5
5
5
5
5
5
5
5
5
5
5
5
5
5
5
CELL_DATA 120
SCALARS patches float
LOOKUP_TABLE default
0
0
0
0
0
0
0
0
0
0
0
0
0
0
0
0
0
0
0
0
0
0
0
0
0
0
0
0
0
0
0
0
0
0
0
0
0
0
0
0
0
0
0
0
0
0
0
0
0
0
0
0
0
0
0
0
0
0
0
0
0
0
0
0
0
0
0
0
0
0
0
0
0
0
0
0
0
0
1
1
1
1
1
1
1
1
2
2
2
2
2
2
2
2
2
2
2
2
2
2
2
2
2
3
3
3
3
3
3
3
3
3
3
3
3
3
3
3
3
3
