# vtk DataFile Version 3.1 
for LSEConsole
ASCII
DATASET UNSTRUCTURED_GRID
POINTS 65 FLOAT
653.963	104.704	-203.225
708.314	109.539	-234.691
686.229	111.537	-223.256
606.252	107.97	-184.298
614.534	134.299	-186.222
601.053	165.803	-181.111
583.72	142.079	-177.561
575.982	159.282	-176.818
553.891	143.938	-176.112
665.6	126.6	-206.7
645.127	139.728	-195.792
567.032	106.731	-179.997
527.588	100.498	-181.891
393.546	254.781	-201.517
580.6	111.3	-179.7
548.581	124.052	-178.086
565.762	132.924	-175.843
511.417	121.523	-180.228
510.038	107.799	-182.18
390.3	233.8	-211.8
404.995	216.822	-204.565
399.163	153.254	-218.163
417.2	188.2	-203.5
465.8	189	-181.3
449.892	178.127	-189.408
467.8	152.8	-184.6
473.584	217.48	-174.864
488.206	208.797	-172.82
462.601	225.002	-177.909
408.9	108.7	-223.6
389.272	100.189	-239.113
431.7	105.3	-207.8
410.9	114	-217.9
423.9	125.2	-207.9
407.242	123.14	-216.646
436	118.1	-202.4
479.4	164.7	-178.6
488.627	160.702	-177.052
504.317	155.335	-175.878
497.597	182.61	-175.115
486.034	122.348	-181.883
481.738	111.679	-185.08
468.7	119.8	-186.8
457.166	113.832	-192.531
449.164	138.728	-192.985
437.5	156.9	-197.3
384.616	107.723	-236.069
378.96	163.256	-233.419
503.11	207.529	-171.518
539.43	178.426	-175.305
526.1	156.7	-176.7
445	235.8	-182.8
391.3	191.9	-218.7
381.3	209.3	-224.1
413	231.7	-197.6
420.042	242.773	-191.593
431	197.9	-195.6
418.9	207.2	-200.3
695.025	104.4	-233.738
681.608	102.724	-221.404
409.75	245.25	-194.65
534.219	174.155	-243.008
500.798	158.145	-292.817
532.795	122.624	-255.54
427.872	171.038	-244.482
CELLS 126 504
3 2 58 1 
3 0 4 3 
3 5 6 4 
3 5 7 6 
3 7 8 6 
3 4 10 5 
3 0 9 10 
3 2 9 0 
3 4 0 10 
3 14 3 4 
3 4 6 14 
3 15 16 8 
3 16 15 11 
3 11 14 16 
3 14 6 16 
3 8 16 6 
3 12 11 15 
3 15 8 17 
3 12 17 18 
3 12 15 17 
3 20 21 22 
3 23 24 25 
3 26 23 27 
3 28 24 23 
3 23 26 28 
3 32 33 34 
3 29 35 33 
3 35 29 31 
3 29 33 32 
3 36 25 37 
3 38 37 17 
3 39 36 37 
3 39 37 38 
3 36 39 27 
3 27 23 36 
3 23 25 36 
3 40 41 18 
3 18 17 40 
3 40 17 37 
3 40 37 25 
3 41 40 42 
3 25 42 40 
3 42 43 41 
3 31 43 35 
3 44 33 35 
3 44 35 43 
3 44 43 42 
3 42 25 44 
3 44 24 45 
3 24 44 25 
3 22 45 24 
3 21 45 22 
3 44 45 34 
3 33 44 34 
3 21 34 45 
3 30 29 46 
3 29 32 46 
3 46 32 34 
3 46 34 21 
3 46 21 47 
3 48 27 39 
3 8 7 49 
3 39 50 49 
3 48 39 49 
3 39 38 50 
3 17 50 38 
3 50 8 49 
3 8 50 17 
3 24 28 51 
3 52 47 21 
3 21 20 52 
3 52 20 53 
3 53 20 19 
3 13 19 54 
3 19 20 54 
3 56 57 22 
3 57 56 54 
3 24 56 22 
3 51 56 24 
3 56 51 55 
3 56 55 54 
3 54 20 57 
3 22 57 20 
3 58 2 59 
3 0 59 2 
3 60 13 54 
3 60 54 55 
3 61 1 62 
3 61 62 13 
3 61 13 60 
3 61 60 55 
3 61 55 51 
3 61 51 28 
3 61 28 26 
3 61 26 27 
3 61 27 48 
3 61 48 49 
3 61 49 7 
3 61 7 5 
3 61 5 10 
3 61 10 9 
3 61 9 2 
3 61 2 1 
3 63 62 1 
3 63 1 58 
3 63 58 59 
3 63 59 0 
3 63 0 3 
3 63 3 14 
3 63 14 11 
3 63 11 12 
3 63 12 18 
3 63 18 41 
3 63 41 43 
3 63 43 31 
3 63 31 29 
3 63 29 30 
3 63 30 62 
3 64 62 30 
3 64 30 46 
3 64 46 47 
3 64 47 52 
3 64 52 53 
3 64 53 19 
3 64 19 13 
3 64 13 62 
CELL_TYPES 126
5
5
5
5
5
5
5
5
5
5
5
5
5
5
5
5
5
5
5
5
5
5
5
5
5
5
5
5
5
5
5
5
5
5
5
5
5
5
5
5
5
5
5
5
5
5
5
5
5
5
5
5
5
5
5
5
5
5
5
5
5
5
5
5
5
5
5
5
5
5
5
5
5
5
5
5
5
5
5
5
5
5
5
5
5
5
5
5
5
5
5
5
5
5
5
5
5
5
5
5
5
5
5
5
5
5
5
5
5
5
5
5
5
5
5
5
5
5
5
5
5
5
5
5
5
5
CELL_DATA 126
SCALARS patches float
LOOKUP_TABLE default
0
0
0
0
0
0
0
0
0
0
0
0
0
0
0
0
0
0
0
0
0
0
0
0
0
0
0
0
0
0
0
0
0
0
0
0
0
0
0
0
0
0
0
0
0
0
0
0
0
0
0
0
0
0
0
0
0
0
0
0
0
0
0
0
0
0
0
0
0
0
0
0
0
0
0
0
0
0
0
0
0
0
0
0
0
0
0
1
1
1
1
1
1
1
1
1
1
1
1
1
1
1
1
2
2
2
2
2
2
2
2
2
2
2
2
2
2
2
3
3
3
3
3
3
3
3
