# vtk DataFile Version 3.1 
for LSEConsole
ASCII
DATASET UNSTRUCTURED_GRID
POINTS 65 FLOAT
0	0	1.47500396
0	0	0
0.53229844	0	0
0	0	2.6291993
1.42374305	0	1.06092533
2.88693083	0	0
2.06115375	0	1.1719623
3.44714723	0	0
2.304389	0	1.61910865
1.18171096	0	0
1.75038018	0	0
0	0	3.54014431
0	0	4.4373078
8	0	0
0	0	3.21879179
1.11868244	0	2.88451641
1.56841968	0	2.0574357
0.831390119	0	4.02563877
0	0	4.8639221
6.90890387	0	1.09109613
5.9704673	0	1.65794166
2.53046763	0	5.05485928
4.39558118	0	2.86349459
4.46901084	0	1.63217134
3.85999358	0	2.58742247
2.452219	0	3.49365464
6.01003245	0	0
5.6446078	0	0
6.3013729	0	0
0	0	7.40696117
0	0	8
0	0	6.77979358
0.376098765	0	6.9446777
0.983120198	0	5.98723063
0.934729994	0	6.44661817
0.580302659	0	6.07604865
3.15957548	0	2.54049645
2.96596477	0	2.50974516
2.73783705	0	2.36328297
4.16678996	0	1.17822031
0.71222357	0	4.72108132
0	0	5.50824557
0.462813754	0	5.36273375
0	0	6.08648816
1.63600611	0	4.71796526
2.67581575	0	4.01072039
0.433163519	0	7.56683648
3.0179195	0	4.9820805
5.32428042	0	0
4.32804735	0	0
2.93829883	0	1.65773544
6.75410754	0	0
4.61307566	0	3.38692434
5.57433438	0	2.42566562
6.77535243	0	0.698487744
7.33793022	0	0
4.88970348	0	2.0723204
5.4169828	0	1.86166822
0	0	0.320458364
0	0	0.731171441
7.57300509	0	0
1.73983232	4.25806606	0
0	8	0
0	4.50006902	1.46329131
2.68273376	2.32066884	2.5911776
CELLS 126 504
3 2 58 1 
3 0 4 3 
3 5 6 4 
3 5 7 6 
3 7 8 6 
3 4 10 5 
3 0 9 10 
3 2 9 0 
3 4 0 10 
3 14 3 4 
3 4 6 14 
3 15 16 8 
3 16 15 11 
3 11 14 16 
3 14 6 16 
3 8 16 6 
3 12 11 15 
3 15 8 17 
3 12 17 18 
3 12 15 17 
3 20 21 22 
3 23 24 25 
3 26 23 27 
3 28 24 23 
3 23 26 28 
3 32 33 34 
3 29 35 33 
3 35 29 31 
3 29 33 32 
3 36 25 37 
3 38 37 17 
3 39 36 37 
3 39 37 38 
3 36 39 27 
3 27 23 36 
3 23 25 36 
3 40 41 18 
3 18 17 40 
3 40 17 37 
3 40 37 25 
3 41 40 42 
3 25 42 40 
3 42 43 41 
3 31 43 35 
3 44 33 35 
3 44 35 43 
3 44 43 42 
3 42 25 44 
3 44 24 45 
3 24 44 25 
3 22 45 24 
3 21 45 22 
3 44 45 34 
3 33 44 34 
3 21 34 45 
3 30 29 46 
3 29 32 46 
3 46 32 34 
3 46 34 21 
3 46 21 47 
3 48 27 39 
3 8 7 49 
3 39 50 49 
3 48 39 49 
3 39 38 50 
3 17 50 38 
3 50 8 49 
3 8 50 17 
3 24 28 51 
3 52 47 21 
3 21 20 52 
3 52 20 53 
3 53 20 19 
3 13 19 54 
3 19 20 54 
3 56 57 22 
3 57 56 54 
3 24 56 22 
3 51 56 24 
3 56 51 55 
3 56 55 54 
3 54 20 57 
3 22 57 20 
3 58 2 59 
3 0 59 2 
3 60 13 54 
3 60 54 55 
3 61 1 62 
3 61 62 13 
3 61 13 60 
3 61 60 55 
3 61 55 51 
3 61 51 28 
3 61 28 26 
3 61 26 27 
3 61 27 48 
3 61 48 49 
3 61 49 7 
3 61 7 5 
3 61 5 10 
3 61 10 9 
3 61 9 2 
3 61 2 1 
3 63 62 1 
3 63 1 58 
3 63 58 59 
3 63 59 0 
3 63 0 3 
3 63 3 14 
3 63 14 11 
3 63 11 12 
3 63 12 18 
3 63 18 41 
3 63 41 43 
3 63 43 31 
3 63 31 29 
3 63 29 30 
3 63 30 62 
3 64 62 30 
3 64 30 46 
3 64 46 47 
3 64 47 52 
3 64 52 53 
3 64 53 19 
3 64 19 13 
3 64 13 62 
CELL_TYPES 126
5
5
5
5
5
5
5
5
5
5
5
5
5
5
5
5
5
5
5
5
5
5
5
5
5
5
5
5
5
5
5
5
5
5
5
5
5
5
5
5
5
5
5
5
5
5
5
5
5
5
5
5
5
5
5
5
5
5
5
5
5
5
5
5
5
5
5
5
5
5
5
5
5
5
5
5
5
5
5
5
5
5
5
5
5
5
5
5
5
5
5
5
5
5
5
5
5
5
5
5
5
5
5
5
5
5
5
5
5
5
5
5
5
5
5
5
5
5
5
5
5
5
5
5
5
5
CELL_DATA 126
SCALARS patches float
LOOKUP_TABLE default
0
0
0
0
0
0
0
0
0
0
0
0
0
0
0
0
0
0
0
0
0
0
0
0
0
0
0
0
0
0
0
0
0
0
0
0
0
0
0
0
0
0
0
0
0
0
0
0
0
0
0
0
0
0
0
0
0
0
0
0
0
0
0
0
0
0
0
0
0
0
0
0
0
0
0
0
0
0
0
0
0
0
0
0
0
0
0
1
1
1
1
1
1
1
1
1
1
1
1
1
1
1
1
2
2
2
2
2
2
2
2
2
2
2
2
2
2
2
3
3
3
3
3
3
3
3
