# vtk DataFile Version 3.1 
for LSEConsole
ASCII
DATASET UNSTRUCTURED_GRID
POINTS 98 FLOAT
0	0	8
0	0	0
8	0	0
0	0	3.91279751
2.66669542	2.66675919	0
0	8	0
0	2.82748335	2.63498705
2.66667439	2.6666608	2.66666481
4	0	4
0	0	5.95639876
3.94005016	0	2.00998847
0	0	1.95639876
4	0	0
1.33334181	1.33339494	0
0	4	0
1.33334932	5.33337408	0
4	4	0
5.33335366	1.33336411	0
0	5.36074652	1.32739255
0	1.48577944	1.29756995
0	1.34863172	3.28811273
0	1.49729476	5.30441479
0	4	4
1.333353	5.33331742	1.33332958
1.33334116	1.33333124	5.33332759
5.33332715	1.33333598	1.33333687
6.00003174	0	1.99996826
3.97128707	0	3.00386539
5.96582083	0	1.00875542
0	0	2.93461492
1.96972356	0	1.98347243
1.93975451	0	2.98845798
2.000023	0	5.999977
0	0	6.97819938
1.98330356	0	4.99310713
1.96398155	0	3.98861819
0	0	4.93459814
0	0	0.97818259
1.99998918	0	0
1.98879616	0	0.988220815
3.97320643	0	1.0021329
6.00001082	0	0
2.00002205	2.0001205	0
1.33334577	3.3333847	0
2.00001886	4.00002359	0
3.33335306	3.33333626	0
4.00002055	2.0000461	0
3.33334781	1.33335253	0
0.666663462	0.666717942	0
0	2	0
0.666667362	2.66665465	0
0.666676654	4.66673448	0
0	6	0
0.6666791	6.66672695	0
2.00001142	5.99998858	0
2.66667724	4.66665056	0
4.66668194	2.66666662	0
6.00001142	1.99998858	0
6.6666869	0.666679473	0
4.66667518	0.66663511	0
2.66667218	0.666718842	0
0	4.07825952	1.98387273
0	3.41993246	1.31412719
0	2.17772581	1.95985641
0	1.43341181	2.28937755
0	2.07547175	2.96434506
0	1.45281278	4.29047119
0	2.19250747	3.96553383
0	3.43204934	3.31505874
0	6.67017608	0.665779652
0	4.69549029	0.660307548
0	2.726778	0.652835847
0	0.756640218	0.645206095
0	0.736812232	1.62853945
0	0.706689561	2.61438568
0	0.652420352	3.60520113
0	0.72392907	4.61313787
0	0.748340369	5.63049585
0	0.756584404	6.65084048
0	2.00003034	5.99996966
0	2.73739126	4.65403922
0	4.7014396	2.65996624
0	5.99996966	2.00003034
2.00002422	4.00001271	1.99996307
1.33331508	3.33334896	3.33333596
2.00000915	1.99999448	3.99999637
3.33334636	1.33335635	3.33329729
4.00003529	1.99997035	1.99999436
3.33333767	3.33332926	1.33333307
0.666700724	6.66663873	0.666660545
0.666666861	4.66666735	2.66666579
0.666692327	2.66664566	4.66666201
0.666649954	0.666686251	6.66666379
2.6666308	0.666702848	4.66666635
4.66666607	0.666664275	2.66666966
6.66666714	0.666630931	0.666701934
4.66669752	2.66664007	0.666662417
2.6667103	4.6666302	0.666659499
CELLS 192 768
3 2 26 28 
3 3 29 31 
3 4 42 44 
3 4 44 46 
3 4 46 42 
3 6 61 63 
3 6 63 65 
3 6 65 67 
3 6 67 61 
3 7 83 85 
3 7 85 87 
3 7 87 83 
3 8 32 34 
3 10 35 31 
3 9 35 34 
3 11 37 39 
3 10 40 28 
3 12 40 39 
3 13 48 50 
3 15 51 53 
3 14 51 50 
3 15 53 55 
3 17 56 58 
3 16 56 55 
3 17 58 59 
3 13 60 48 
3 12 60 59 
3 18 69 70 
3 19 71 72 
3 14 71 70 
3 19 72 73 
3 20 74 75 
3 11 74 73 
3 20 75 76 
3 21 77 78 
3 9 77 76 
3 21 78 80 
3 18 81 69 
3 22 81 80 
3 23 89 90 
3 24 91 92 
3 22 91 90 
3 24 92 93 
3 25 94 95 
3 8 94 93 
3 25 95 96 
3 23 97 89 
3 16 97 96 
3 26 8 27 
3 28 27 10 
3 27 28 26 
3 29 11 30 
3 31 30 10 
3 30 31 29 
3 32 0 33 
3 34 33 9 
3 33 34 32 
3 35 9 36 
3 31 36 3 
3 36 31 35 
3 35 10 27 
3 34 27 8 
3 27 34 35 
3 37 1 38 
3 39 38 12 
3 38 39 37 
3 40 12 41 
3 28 41 2 
3 41 28 40 
3 40 10 30 
3 39 30 11 
3 30 39 40 
3 42 13 43 
3 44 43 15 
3 43 44 42 
3 44 15 45 
3 46 45 17 
3 45 46 44 
3 46 17 47 
3 42 47 13 
3 47 42 46 
3 48 1 49 
3 50 49 14 
3 49 50 48 
3 51 14 52 
3 53 52 5 
3 52 53 51 
3 51 15 43 
3 50 43 13 
3 43 50 51 
3 53 5 54 
3 55 54 16 
3 54 55 53 
3 56 16 57 
3 58 57 2 
3 57 58 56 
3 56 17 45 
3 55 45 15 
3 45 55 56 
3 58 2 41 
3 59 41 12 
3 41 59 58 
3 60 12 38 
3 48 38 1 
3 38 48 60 
3 60 13 47 
3 59 47 17 
3 47 59 60 
3 61 18 62 
3 63 62 19 
3 62 63 61 
3 63 19 64 
3 65 64 20 
3 64 65 63 
3 65 20 66 
3 67 66 21 
3 66 67 65 
3 67 21 68 
3 61 68 18 
3 68 61 67 
3 69 5 52 
3 70 52 14 
3 52 70 69 
3 71 14 49 
3 72 49 1 
3 49 72 71 
3 71 19 62 
3 70 62 18 
3 62 70 71 
3 72 1 37 
3 73 37 11 
3 37 73 72 
3 74 11 29 
3 75 29 3 
3 29 75 74 
3 74 20 64 
3 73 64 19 
3 64 73 74 
3 75 3 36 
3 76 36 9 
3 36 76 75 
3 77 9 33 
3 78 33 0 
3 33 78 77 
3 77 21 66 
3 76 66 20 
3 66 76 77 
3 78 0 79 
3 80 79 22 
3 79 80 78 
3 81 22 82 
3 69 82 5 
3 82 69 81 
3 81 18 68 
3 80 68 21 
3 68 80 81 
3 83 23 84 
3 85 84 24 
3 84 85 83 
3 85 24 86 
3 87 86 25 
3 86 87 85 
3 87 25 88 
3 83 88 23 
3 88 83 87 
3 89 5 82 
3 90 82 22 
3 82 90 89 
3 91 22 79 
3 92 79 0 
3 79 92 91 
3 91 24 84 
3 90 84 23 
3 84 90 91 
3 92 0 32 
3 93 32 8 
3 32 93 92 
3 94 8 26 
3 95 26 2 
3 26 95 94 
3 94 25 86 
3 93 86 24 
3 86 93 94 
3 95 2 57 
3 96 57 16 
3 57 96 95 
3 97 16 54 
3 89 54 5 
3 54 89 97 
3 97 23 88 
3 96 88 25 
3 88 96 97 
CELL_TYPES 192
5
5
5
5
5
5
5
5
5
5
5
5
5
5
5
5
5
5
5
5
5
5
5
5
5
5
5
5
5
5
5
5
5
5
5
5
5
5
5
5
5
5
5
5
5
5
5
5
5
5
5
5
5
5
5
5
5
5
5
5
5
5
5
5
5
5
5
5
5
5
5
5
5
5
5
5
5
5
5
5
5
5
5
5
5
5
5
5
5
5
5
5
5
5
5
5
5
5
5
5
5
5
5
5
5
5
5
5
5
5
5
5
5
5
5
5
5
5
5
5
5
5
5
5
5
5
5
5
5
5
5
5
5
5
5
5
5
5
5
5
5
5
5
5
5
5
5
5
5
5
5
5
5
5
5
5
5
5
5
5
5
5
5
5
5
5
5
5
5
5
5
5
5
5
5
5
5
5
5
5
5
5
5
5
5
5
5
5
5
5
5
5
CELL_DATA 192
SCALARS patches float
LOOKUP_TABLE default
0
0
1
1
1
2
2
2
2
3
3
3
0
0
0
0
0
0
1
1
1
1
1
1
1
1
1
2
2
2
2
2
2
2
2
2
2
2
2
3
3
3
3
3
3
3
3
3
0
0
0
0
0
0
0
0
0
0
0
0
0
0
0
0
0
0
0
0
0
0
0
0
1
1
1
1
1
1
1
1
1
1
1
1
1
1
1
1
1
1
1
1
1
1
1
1
1
1
1
1
1
1
1
1
1
1
1
1
2
2
2
2
2
2
2
2
2
2
2
2
2
2
2
2
2
2
2
2
2
2
2
2
2
2
2
2
2
2
2
2
2
2
2
2
2
2
2
2
2
2
2
2
2
2
2
2
3
3
3
3
3
3
3
3
3
3
3
3
3
3
3
3
3
3
3
3
3
3
3
3
3
3
3
3
3
3
3
3
3
3
3
3
