# vtk DataFile Version 3.1 
for LSEConsole
ASCII
DATASET UNSTRUCTURED_GRID
POINTS 98 FLOAT
0.57794	0.087266	0.195824
0.575793	0.09817	0.181367
0.561203	0.082409	0.192375
0.576656	0.0937872	0.189178
0.568534	0.089967	0.184769
0.568607	0.089322	0.180565
0.574113	0.091586	0.185919
0.56925	0.0863323	0.189588
0.5695715	0.0848375	0.1940995
0.577298	0.0905266	0.192501
0.5689295	0.0880981	0.1907765
0.5762245	0.0959786	0.1852725
0.568498	0.0902895	0.186871
0.5721635	0.0940685	0.183068
0.5722	0.093746	0.180966
0.5685705	0.0896445	0.182667
0.564905	0.0858655	0.18647
0.5648685	0.086188	0.188572
0.57136	0.090454	0.183242
0.574953	0.094878	0.183643
0.5753845	0.0926866	0.1875485
0.5760265	0.089426	0.1908715
0.5732735	0.088294	0.1881945
0.5689285	0.0878271	0.1850765
0.573595	0.0867991	0.192706
0.5652265	0.0843707	0.1909815
0.5653872	0.0836232	0.1932372
0.5692505	0.0864678	0.192438
0.5650662	0.0852536	0.1915758
0.5764402	0.0948829	0.1872253
0.572577	0.0920383	0.1880245
0.5727928	0.0909427	0.1899773
0.5737557	0.0860517	0.1949618
0.577619	0.0888963	0.1941625
0.5734347	0.087682	0.1933002
0.5731137	0.0893123	0.1916388
0.576977	0.0921569	0.1908395
0.5760088	0.0970743	0.1833197
0.5721455	0.0942298	0.184119
0.5723612	0.0931341	0.1860718
0.5687138	0.0891938	0.1888237
0.5648505	0.0863492	0.189623
0.5703487	0.0920177	0.1839185
0.570367	0.0918565	0.1828675
0.5685523	0.0898058	0.183718
0.5667195	0.0879163	0.1856195
0.5667013	0.0880775	0.1866705
0.568516	0.0901283	0.18582
0.5739783	0.0961192	0.1822175
0.5739965	0.095958	0.1811665
0.5721818	0.0939073	0.182017
0.5703852	0.0916952	0.1818165
0.5704035	0.091534	0.1807655
0.5685887	0.0894832	0.181616
0.566756	0.0875937	0.1835175
0.5667378	0.087755	0.1845685
0.5648867	0.0860268	0.187521
0.563054	0.0841372	0.1894225
0.5630357	0.0842985	0.1904735
0.5666833	0.0882388	0.1877215
0.5703307	0.092179	0.1849695
0.5727365	0.09102	0.1845805
0.5731565	0.092666	0.1834425
0.574533	0.093232	0.184781
0.5751687	0.0937823	0.1855958
0.5747488	0.0921363	0.1867338
0.5757055	0.0910563	0.18921
0.5750698	0.090506	0.1883953
0.5736933	0.08994	0.1870568
0.5699835	0.089888	0.1819035
0.57178	0.0921	0.182104
0.5735765	0.094312	0.1823045
0.5753731	0.096524	0.182505
0.5755888	0.0954283	0.1844577
0.5758045	0.0943326	0.1864105
0.5760202	0.0932369	0.1883633
0.5763413	0.0916066	0.1900248
0.5766622	0.0899763	0.1916863
0.5769832	0.088346	0.1933478
0.5756067	0.08778	0.1920092
0.57465	0.08886	0.189533
0.5723168	0.089374	0.1857182
0.5709403	0.088808	0.1843798
0.5690892	0.0870797	0.1873322
0.5712618	0.0873131	0.1888912
0.5714225	0.0865657	0.191147
0.5694107	0.0855849	0.1918437
0.5672382	0.0853515	0.1902848
0.5670775	0.0860989	0.188029
0.5687677	0.0885746	0.1828208
0.571101	0.0880606	0.1866355
0.5734342	0.0875466	0.1904503
0.5757675	0.0870326	0.194265
0.5715833	0.0858183	0.1934027
0.567399	0.0846041	0.1925405
0.5632148	0.0833898	0.1916783
0.5650657	0.0851181	0.1887258
0.5669167	0.0868463	0.1857733
CELLS 192 768
3 2 26 28 
3 3 29 31 
3 4 42 44 
3 4 44 46 
3 4 46 42 
3 6 61 63 
3 6 63 65 
3 6 65 67 
3 6 67 61 
3 7 83 85 
3 7 85 87 
3 7 87 83 
3 8 32 34 
3 10 35 31 
3 9 35 34 
3 11 37 39 
3 10 40 28 
3 12 40 39 
3 13 48 50 
3 15 51 53 
3 14 51 50 
3 15 53 55 
3 17 56 58 
3 16 56 55 
3 17 58 59 
3 13 60 48 
3 12 60 59 
3 18 69 70 
3 19 71 72 
3 14 71 70 
3 19 72 73 
3 20 74 75 
3 11 74 73 
3 20 75 76 
3 21 77 78 
3 9 77 76 
3 21 78 80 
3 18 81 69 
3 22 81 80 
3 23 89 90 
3 24 91 92 
3 22 91 90 
3 24 92 93 
3 25 94 95 
3 8 94 93 
3 25 95 96 
3 23 97 89 
3 16 97 96 
3 26 8 27 
3 28 27 10 
3 27 28 26 
3 29 11 30 
3 31 30 10 
3 30 31 29 
3 32 0 33 
3 34 33 9 
3 33 34 32 
3 35 9 36 
3 31 36 3 
3 36 31 35 
3 35 10 27 
3 34 27 8 
3 27 34 35 
3 37 1 38 
3 39 38 12 
3 38 39 37 
3 40 12 41 
3 28 41 2 
3 41 28 40 
3 40 10 30 
3 39 30 11 
3 30 39 40 
3 42 13 43 
3 44 43 15 
3 43 44 42 
3 44 15 45 
3 46 45 17 
3 45 46 44 
3 46 17 47 
3 42 47 13 
3 47 42 46 
3 48 1 49 
3 50 49 14 
3 49 50 48 
3 51 14 52 
3 53 52 5 
3 52 53 51 
3 51 15 43 
3 50 43 13 
3 43 50 51 
3 53 5 54 
3 55 54 16 
3 54 55 53 
3 56 16 57 
3 58 57 2 
3 57 58 56 
3 56 17 45 
3 55 45 15 
3 45 55 56 
3 58 2 41 
3 59 41 12 
3 41 59 58 
3 60 12 38 
3 48 38 1 
3 38 48 60 
3 60 13 47 
3 59 47 17 
3 47 59 60 
3 61 18 62 
3 63 62 19 
3 62 63 61 
3 63 19 64 
3 65 64 20 
3 64 65 63 
3 65 20 66 
3 67 66 21 
3 66 67 65 
3 67 21 68 
3 61 68 18 
3 68 61 67 
3 69 5 52 
3 70 52 14 
3 52 70 69 
3 71 14 49 
3 72 49 1 
3 49 72 71 
3 71 19 62 
3 70 62 18 
3 62 70 71 
3 72 1 37 
3 73 37 11 
3 37 73 72 
3 74 11 29 
3 75 29 3 
3 29 75 74 
3 74 20 64 
3 73 64 19 
3 64 73 74 
3 75 3 36 
3 76 36 9 
3 36 76 75 
3 77 9 33 
3 78 33 0 
3 33 78 77 
3 77 21 66 
3 76 66 20 
3 66 76 77 
3 78 0 79 
3 80 79 22 
3 79 80 78 
3 81 22 82 
3 69 82 5 
3 82 69 81 
3 81 18 68 
3 80 68 21 
3 68 80 81 
3 83 23 84 
3 85 84 24 
3 84 85 83 
3 85 24 86 
3 87 86 25 
3 86 87 85 
3 87 25 88 
3 83 88 23 
3 88 83 87 
3 89 5 82 
3 90 82 22 
3 82 90 89 
3 91 22 79 
3 92 79 0 
3 79 92 91 
3 91 24 84 
3 90 84 23 
3 84 90 91 
3 92 0 32 
3 93 32 8 
3 32 93 92 
3 94 8 26 
3 95 26 2 
3 26 95 94 
3 94 25 86 
3 93 86 24 
3 86 93 94 
3 95 2 57 
3 96 57 16 
3 57 96 95 
3 97 16 54 
3 89 54 5 
3 54 89 97 
3 97 23 88 
3 96 88 25 
3 88 96 97 
CELL_TYPES 192
5
5
5
5
5
5
5
5
5
5
5
5
5
5
5
5
5
5
5
5
5
5
5
5
5
5
5
5
5
5
5
5
5
5
5
5
5
5
5
5
5
5
5
5
5
5
5
5
5
5
5
5
5
5
5
5
5
5
5
5
5
5
5
5
5
5
5
5
5
5
5
5
5
5
5
5
5
5
5
5
5
5
5
5
5
5
5
5
5
5
5
5
5
5
5
5
5
5
5
5
5
5
5
5
5
5
5
5
5
5
5
5
5
5
5
5
5
5
5
5
5
5
5
5
5
5
5
5
5
5
5
5
5
5
5
5
5
5
5
5
5
5
5
5
5
5
5
5
5
5
5
5
5
5
5
5
5
5
5
5
5
5
5
5
5
5
5
5
5
5
5
5
5
5
5
5
5
5
5
5
5
5
5
5
5
5
5
5
5
5
5
5
CELL_DATA 192
SCALARS patches float
LOOKUP_TABLE default
0
0
1
1
1
2
2
2
2
3
3
3
0
0
0
0
0
0
1
1
1
1
1
1
1
1
1
2
2
2
2
2
2
2
2
2
2
2
2
3
3
3
3
3
3
3
3
3
0
0
0
0
0
0
0
0
0
0
0
0
0
0
0
0
0
0
0
0
0
0
0
0
1
1
1
1
1
1
1
1
1
1
1
1
1
1
1
1
1
1
1
1
1
1
1
1
1
1
1
1
1
1
1
1
1
1
1
1
2
2
2
2
2
2
2
2
2
2
2
2
2
2
2
2
2
2
2
2
2
2
2
2
2
2
2
2
2
2
2
2
2
2
2
2
2
2
2
2
2
2
2
2
2
2
2
2
3
3
3
3
3
3
3
3
3
3
3
3
3
3
3
3
3
3
3
3
3
3
3
3
3
3
3
3
3
3
3
3
3
3
3
3
