# vtk DataFile Version 3.1 
for LSEConsole
ASCII
DATASET UNSTRUCTURED_GRID
POINTS 40 FLOAT
0	0	3.88150992
1.51726879	0	4.23875166
4.17406383	0	3.82593617
3.34471992	0	1.28429332
0	0	2.64088906
5.11039446	0	1.42163234
1.44933987	0	6.55066013
0	0	8
0	0	3.36804573
0	0	5.24364926
0	0	4.55779417
2.76512905	0	5.23487095
0	0	1.57560713
6.15688371	0	0
4.11996164	0	1.46227275
5.3593329	0	0
2.96094466	0	3.97650102
3.32934747	0	2.76813266
4.52142802	0	2.64801114
5.60016355	0	2.39983645
6.85080085	0	1.14919915
1.35418541	0	2.81383721
2.00229272	0	1.61323404
4.64575022	0	0
3.76855132	0	0
2.23671176	0	2.84776643
0	0	0
1.99742003	0	0
0.999656775	0	0
2.89738513	0	0
7.08439377	0	0
8	0	0
1.48256057	0	5.47174565
0	0	7.16485041
0	0	6.1725694
0	0	0.763920552
2.40425259	2.90552835	0
0	8	0
0	3.03166713	2.25017814
2.68192045	2.70952636	2.61454594
CELLS 76 304
3 13 14 15 
3 16 17 18 
3 19 18 20 
3 21 8 22 
3 10 21 25 
3 27 12 28 
3 20 30 31 
3 22 29 24 
3 11 32 16 
3 33 34 32 
3 17 25 14 
3 1 9 10 
3 13 5 14 
3 15 14 3 
3 2 16 18 
3 16 1 17 
3 18 17 5 
3 19 2 18 
3 20 18 5 
3 3 21 22 
3 21 0 8 
3 22 8 4 
3 23 3 24 
3 1 10 25 
3 10 0 21 
3 25 21 3 
3 27 4 12 
3 28 12 35 
3 27 29 4 
3 20 5 30 
3 3 22 24 
3 22 4 29 
3 2 11 16 
3 11 6 32 
3 16 32 1 
3 26 28 35 
3 7 33 6 
3 13 30 5 
3 23 15 3 
3 6 33 32 
3 32 34 1 
3 1 34 9 
3 5 17 14 
3 17 1 25 
3 14 25 3 
3 36 26 37 
3 36 37 31 
3 36 31 30 
3 36 30 13 
3 36 13 15 
3 36 15 23 
3 36 23 24 
3 36 24 29 
3 36 29 27 
3 36 27 28 
3 36 28 26 
3 38 37 26 
3 38 26 35 
3 38 35 12 
3 38 12 4 
3 38 4 8 
3 38 8 0 
3 38 0 10 
3 38 10 9 
3 38 9 34 
3 38 34 33 
3 38 33 7 
3 38 7 37 
3 39 37 7 
3 39 7 6 
3 39 6 11 
3 39 11 2 
3 39 2 19 
3 39 19 20 
3 39 20 31 
3 39 31 37 
CELL_TYPES 76
5
5
5
5
5
5
5
5
5
5
5
5
5
5
5
5
5
5
5
5
5
5
5
5
5
5
5
5
5
5
5
5
5
5
5
5
5
5
5
5
5
5
5
5
5
5
5
5
5
5
5
5
5
5
5
5
5
5
5
5
5
5
5
5
5
5
5
5
5
5
5
5
5
5
5
5
CELL_DATA 76
SCALARS patches float
LOOKUP_TABLE default
0
0
0
0
0
0
0
0
0
0
0
0
0
0
0
0
0
0
0
0
0
0
0
0
0
0
0
0
0
0
0
0
0
0
0
0
0
0
0
0
0
0
0
0
0
1
1
1
1
1
1
1
1
1
1
1
2
2
2
2
2
2
2
2
2
2
2
2
3
3
3
3
3
3
3
3
