# vtk DataFile Version 3.1 
for LSEConsole
ASCII
DATASET UNSTRUCTURED_GRID
POINTS 11 FLOAT
7.88596	0	-5.36198
16.1871	0	-9.38064
12.4273	0	-5.54168
10.1304	0	-3.1964
11.6349	0	-7.17687
14.3072	0	-7.46116
15.2472	0	-8.4209
9.98546	0.781222	-4.94107
11.94	2.34367	-6.26483
12.7525	0.781222	-6.28062
12.0043	0.781222	-7.00248
CELLS 18 72
3 0 2 3 
3 1 6 4 
3 0 4 2 
3 5 2 4 
3 6 5 4 
3 7 3 8 
3 7 8 0 
3 7 0 3 
3 9 8 3 
3 9 3 2 
3 9 2 5 
3 9 5 6 
3 9 6 1 
3 9 1 8 
3 10 8 1 
3 10 1 4 
3 10 4 0 
3 10 0 8 
CELL_TYPES 18
5
5
5
5
5
5
5
5
5
5
5
5
5
5
5
5
5
5
CELL_DATA 18
SCALARS patches float
LOOKUP_TABLE default
0
0
0
0
0
1
1
1
2
2
2
2
2
2
3
3
3
3
