# vtk DataFile Version 3.1 
for LSEConsole
ASCII
DATASET UNSTRUCTURED_GRID
POINTS 11 FLOAT
8	0	0
0	0	8
0	0	3.03387167
0	0	0
4.38706279	0	3.61293721
0	0	5.51693583
0	0	6.75850025
2.66665279	2.66667257	0
0	8	0
0	2.66666155	2.66666651
2.6667279	2.66663402	2.66663807
CELLS 18 72
3 0 2 3 
3 1 6 4 
3 0 4 2 
3 5 2 4 
3 6 5 4 
3 7 3 8 
3 7 8 0 
3 7 0 3 
3 9 8 3 
3 9 3 2 
3 9 2 5 
3 9 5 6 
3 9 6 1 
3 9 1 8 
3 10 8 1 
3 10 1 4 
3 10 4 0 
3 10 0 8 
CELL_TYPES 18
5
5
5
5
5
5
5
5
5
5
5
5
5
5
5
5
5
5
CELL_DATA 18
SCALARS patches float
LOOKUP_TABLE default
0
0
0
0
0
1
1
1
2
2
2
2
2
2
3
3
3
3
