# vtk DataFile Version 3.1 
for LSEConsole
ASCII
DATASET UNSTRUCTURED_GRID
POINTS 71 FLOAT
8	0	1.42925488
0.950159089	1.42463199	8
0	0.83533847	8
8	0	3.07480297
8	0	2.21629854
3.23767426	4.76232574	0
1.94805972	5.18691564	8
2.3273774	2.9524006	8
0	4.09653	8
3.49350493	0	8
5.87569354	2.12430646	8
5.79890936	0	8
2.468074	5.531926	0
8	0	0.353957343
8	0	0
4.88141566	3.11858434	0
5.64047335	2.35952665	0
0	2.56144133	8
0	3.30369389	8
8	0	7.09907477
8	0	7.52978891
8	0	3.43800541
8	0	3.77195522
8	0	2.66806675
8	0	1.77128675
0	8	8
0	7.2749842	8
1.77846888	6.22153112	8
1.67272645	6.32727355	0
8	0	6.25457921
8	0	5.86945691
8	0	6.67685893
0.83287307	0	8
0	0	8
6.52258825	1.47741175	0
7.33186961	0.668130388	0
0	8	0
0.847630065	7.15236993	0
1.42475523	2.41962886	8
1.96750598	1.06032816	8
8	0	4.12503151
8	0	4.53502331
4.70308044	0	8
4.24624294	1.36400499	8
8	0	5.41784958
8	0	8
2.26038673	0	8
8	0	0.727997916
8	0	4.96070127
3.76148464	4.23851536	8
1.56270608	0	8
0	1.67905556	8
6.3332679	0	8
2.06028941	4.16080537	8
0	6.60809483	8
0	5.81808525	8
0	4.91151294	8
4.03137313	3.96862687	0
2.87237008	1.51109275	8
8	0	1.08548069
4.03906641	2.58037675	8
7.25490286	0	8
6.90627242	0	8
5.31297665	0	8
4.07056022	0	8
2.84200419	0	8
4.34594677	0	4.14009314
0	0	0
2.96751025	5.03248975	4.04420776
0	4.05644645	4.10496778
2.67340759	2.68664347	0
CELLS 138 552
3 25 26 27 
3 38 18 39 
3 32 50 51 
3 53 54 55 
3 38 58 56 
3 52 49 60 
3 58 64 42 
3 43 60 53 
3 17 1 18 
3 10 62 61 
3 27 26 6 
3 33 32 2 
3 9 38 39 
3 38 8 18 
3 39 18 1 
3 7 42 43 
3 43 63 11 
3 46 39 1 
3 49 27 6 
3 10 61 45 
3 2 32 51 
3 51 50 1 
3 7 53 55 
3 53 6 54 
3 56 7 55 
3 50 46 1 
3 6 26 54 
3 8 38 56 
3 38 9 58 
3 56 58 7 
3 11 52 60 
3 52 10 49 
3 60 49 6 
3 51 1 17 
3 7 58 42 
3 58 9 64 
3 7 43 53 
3 43 11 60 
3 53 60 6 
3 62 10 52 
3 42 63 43 
3 65 9 39 
3 65 39 46 
3 66 67 14 
3 66 14 13 
3 66 13 47 
3 66 47 59 
3 66 59 0 
3 66 0 24 
3 66 24 4 
3 66 4 23 
3 66 23 3 
3 66 3 21 
3 66 21 22 
3 66 22 40 
3 66 40 41 
3 66 41 48 
3 66 48 44 
3 66 44 30 
3 66 30 29 
3 66 29 31 
3 66 31 19 
3 66 19 20 
3 66 20 45 
3 66 45 61 
3 66 61 62 
3 66 62 52 
3 66 52 11 
3 66 11 63 
3 66 63 42 
3 66 42 64 
3 66 64 9 
3 66 9 65 
3 66 65 46 
3 66 46 50 
3 66 50 32 
3 66 32 33 
3 66 33 67 
3 68 14 35 
3 68 35 34 
3 68 34 16 
3 68 16 15 
3 68 15 57 
3 68 57 5 
3 68 5 12 
3 68 12 28 
3 68 28 37 
3 68 37 36 
3 68 36 25 
3 68 25 27 
3 68 27 49 
3 68 49 10 
3 68 10 45 
3 68 45 20 
3 68 20 19 
3 68 19 31 
3 68 31 29 
3 68 29 30 
3 68 30 44 
3 68 44 48 
3 68 48 41 
3 68 41 40 
3 68 40 22 
3 68 22 21 
3 68 21 3 
3 68 3 23 
3 68 23 4 
3 68 4 24 
3 68 24 0 
3 68 0 59 
3 68 59 47 
3 68 47 13 
3 68 13 14 
3 69 36 67 
3 69 67 33 
3 69 33 2 
3 69 2 51 
3 69 51 17 
3 69 17 18 
3 69 18 8 
3 69 8 56 
3 69 56 55 
3 69 55 54 
3 69 54 26 
3 69 26 25 
3 69 25 36 
3 70 14 67 
3 70 67 36 
3 70 36 37 
3 70 37 28 
3 70 28 12 
3 70 12 5 
3 70 5 57 
3 70 57 15 
3 70 15 16 
3 70 16 34 
3 70 34 35 
3 70 35 14 
CELL_TYPES 138
5
5
5
5
5
5
5
5
5
5
5
5
5
5
5
5
5
5
5
5
5
5
5
5
5
5
5
5
5
5
5
5
5
5
5
5
5
5
5
5
5
5
5
5
5
5
5
5
5
5
5
5
5
5
5
5
5
5
5
5
5
5
5
5
5
5
5
5
5
5
5
5
5
5
5
5
5
5
5
5
5
5
5
5
5
5
5
5
5
5
5
5
5
5
5
5
5
5
5
5
5
5
5
5
5
5
5
5
5
5
5
5
5
5
5
5
5
5
5
5
5
5
5
5
5
5
5
5
5
5
5
5
5
5
5
5
5
5
CELL_DATA 138
SCALARS patches float
LOOKUP_TABLE default
0
0
0
0
0
0
0
0
0
0
0
0
0
0
0
0
0
0
0
0
0
0
0
0
0
0
0
0
0
0
0
0
0
0
0
0
0
0
0
0
0
0
0
1
1
1
1
1
1
1
1
1
1
1
1
1
1
1
1
1
1
1
1
1
1
1
1
1
1
1
1
1
1
1
1
1
1
1
2
2
2
2
2
2
2
2
2
2
2
2
2
2
2
2
2
2
2
2
2
2
2
2
2
2
2
2
2
2
2
2
2
2
2
3
3
3
3
3
3
3
3
3
3
3
3
3
4
4
4
4
4
4
4
4
4
4
4
4
