# vtk DataFile Version 3.1 
for LSEConsole
ASCII
DATASET UNSTRUCTURED_GRID
POINTS 77 FLOAT
8	0	0
5.78922997	2.21077003	0
3.71371043	4.28628957	0
1.81707411	6.18292589	0
0	8	0
8	0	0.650749236
5.25577863	0	0.453200476
2.63067144	0	0.240168869
0	0	0
0	8	0.524069747
8	0	1.29661413
5.45857263	0	1.14820825
2.91728335	0	0.97502051
0	0	0.745391098
0	8	1.15212171
8	0	1.93710818
5.60251708	0	1.83460525
3.1100108	0	1.70116807
0	0	1.50599641
0	8	1.83169904
8	0	2.58603707
5.67043442	0	2.52900048
3.15263652	0	2.45064211
0	0	2.29605628
0	8	2.55385355
8	0	3.2511268
5.67125928	0	3.23944938
3.03977744	0	3.21683089
0	0	3.1751499
0	8	3.30846597
8	0	3.93021708
5.66342421	0	3.95990453
2.88049418	0	3.99584546
0	0	4.03344397
0	8	4.07991915
8	0	4.61627107
5.66022429	0	4.69456526
3.02128984	0	4.7875927
0	0	4.93630974
0	8	4.84886926
8	0	5.29611253
5.66323536	0	5.40579541
3.14290734	0	5.54486597
0	0	5.78338432
0	8	5.59250039
8	0	5.96598187
5.59161329	0	6.1094646
3.12852627	0	6.27417774
0	0	6.54455073
0	8	6.27241522
8	0	6.6311315
5.48209875	0	6.80305142
2.99842941	0	6.99208763
0	0	7.28058305
0	8	6.91519968
8	0	7.31093026
5.34618581	0	7.50598387
2.81835375	0	7.70676102
0	0	8
0	8	7.52978889
8	0	8
5.85870901	2.14129099	8
3.82666163	4.17333837	8
1.51493314	6.48506686	8
0	8	8
0	5.19077115	8
2.8825754	0	8
5.09437775	0	8
3.85417427	0	8
6.55158558	0	0.215928643
5.89712954	0	0
4.89986403	0	0
3.99628369	0	0
1.87642962	1.89671304	0
1.92784096	0	0
2.54985897	0	0
3.97900408	4.02099592	4.00130237
CELLS 150 600
3 5 6 69 
3 6 7 72 
3 7 8 74 
3 10 11 6 
3 6 5 10 
3 11 12 7 
3 7 6 11 
3 12 13 8 
3 8 7 12 
3 15 16 11 
3 11 10 15 
3 16 17 12 
3 12 11 16 
3 17 18 13 
3 13 12 17 
3 20 21 16 
3 16 15 20 
3 21 22 17 
3 17 16 21 
3 22 23 18 
3 18 17 22 
3 25 26 21 
3 21 20 25 
3 26 27 22 
3 22 21 26 
3 27 28 23 
3 23 22 27 
3 30 31 26 
3 26 25 30 
3 31 32 27 
3 27 26 31 
3 32 33 28 
3 28 27 32 
3 35 36 31 
3 31 30 35 
3 36 37 32 
3 32 31 36 
3 37 38 33 
3 33 32 37 
3 40 41 36 
3 36 35 40 
3 41 42 37 
3 37 36 41 
3 42 43 38 
3 38 37 42 
3 45 46 41 
3 41 40 45 
3 46 47 42 
3 42 41 46 
3 47 48 43 
3 43 42 47 
3 50 51 46 
3 46 45 50 
3 51 52 47 
3 47 46 51 
3 52 53 48 
3 48 47 52 
3 55 56 51 
3 51 50 55 
3 56 57 52 
3 52 51 56 
3 57 58 53 
3 53 52 57 
3 56 55 60 
3 57 56 67 
3 58 57 66 
3 60 67 56 
3 57 67 68 
3 68 66 57 
3 69 0 5 
3 69 6 70 
3 70 0 69 
3 70 6 71 
3 72 7 75 
3 72 71 6 
3 74 75 7 
3 1 0 70 
3 2 1 71 
3 3 2 73 
3 4 3 8 
3 70 71 1 
3 2 71 72 
3 73 8 3 
3 73 2 74 
3 74 8 73 
3 74 2 75 
3 72 75 2 
3 8 9 4 
3 13 14 9 
3 9 8 13 
3 18 19 14 
3 14 13 18 
3 23 24 19 
3 19 18 23 
3 28 29 24 
3 24 23 28 
3 33 34 29 
3 29 28 33 
3 38 39 34 
3 34 33 38 
3 43 44 39 
3 39 38 43 
3 48 49 44 
3 44 43 48 
3 53 54 49 
3 49 48 53 
3 58 59 54 
3 54 53 58 
3 59 58 65 
3 65 64 59 
3 60 61 67 
3 61 62 66 
3 62 63 58 
3 63 64 65 
3 65 58 63 
3 58 66 62 
3 61 66 68 
3 68 67 61 
3 76 0 1 
3 76 1 2 
3 76 2 3 
3 76 3 4 
3 76 4 9 
3 76 9 14 
3 76 14 19 
3 76 19 24 
3 76 24 29 
3 76 29 34 
3 76 34 39 
3 76 39 44 
3 76 44 49 
3 76 49 54 
3 76 54 59 
3 76 59 64 
3 76 64 63 
3 76 63 62 
3 76 62 61 
3 76 61 60 
3 76 60 55 
3 76 55 50 
3 76 50 45 
3 76 45 40 
3 76 40 35 
3 76 35 30 
3 76 30 25 
3 76 25 20 
3 76 20 15 
3 76 15 10 
3 76 10 5 
3 76 5 0 
CELL_TYPES 150
5
5
5
5
5
5
5
5
5
5
5
5
5
5
5
5
5
5
5
5
5
5
5
5
5
5
5
5
5
5
5
5
5
5
5
5
5
5
5
5
5
5
5
5
5
5
5
5
5
5
5
5
5
5
5
5
5
5
5
5
5
5
5
5
5
5
5
5
5
5
5
5
5
5
5
5
5
5
5
5
5
5
5
5
5
5
5
5
5
5
5
5
5
5
5
5
5
5
5
5
5
5
5
5
5
5
5
5
5
5
5
5
5
5
5
5
5
5
5
5
5
5
5
5
5
5
5
5
5
5
5
5
5
5
5
5
5
5
5
5
5
5
5
5
5
5
5
5
5
5
CELL_DATA 150
SCALARS patches float
LOOKUP_TABLE default
0
0
0
0
0
0
0
0
0
0
0
0
0
0
0
0
0
0
0
0
0
0
0
0
0
0
0
0
0
0
0
0
0
0
0
0
0
0
0
0
0
0
0
0
0
0
0
0
0
0
0
0
0
0
0
0
0
0
0
0
0
0
0
0
0
0
0
0
0
0
0
0
0
0
0
0
1
1
1
1
1
1
1
1
1
1
1
2
2
2
2
2
2
2
2
2
2
2
2
2
2
2
2
2
2
2
2
2
2
2
3
3
3
3
3
3
3
3
4
4
4
4
4
4
4
4
4
4
4
4
4
4
4
4
4
4
4
4
4
4
4
4
4
4
4
4
4
4
4
4
