# vtk DataFile Version 3.1 
for LSEConsole
ASCII
DATASET UNSTRUCTURED_GRID
POINTS 22 FLOAT
6.46351829	0	1.53648171
4.45738638	0	3.54261362
4.20398767	0	0
1.47501875	0	6.52498125
8	0	0
5.29171904	0	0
1.59597349	0	2.30809534
2.41202106	0	0
0	0	8
0	0	2.97182517
0	0	0
0	0	2.14751262
1.54221044	0	3.57259695
3.04835278	0	4.95164722
0	0	1.72817994
0	0	1.55627341
0	0	6.37980497
0	0	5.28024531
2.66669595	2.66661111	0
0	8	0
0	2.66665589	2.66671965
1.75473992	6.16686343	1.66717928
CELLS 40 160
3 0 1 2 
3 0 2 5 
3 0 5 4 
3 1 6 7 
3 1 7 2 
3 3 8 16 
3 3 16 17 
3 3 17 9 
3 9 12 3 
3 6 15 10 
3 6 10 7 
3 1 13 6 
3 11 14 12 
3 9 11 12 
3 6 14 15 
3 12 6 13 
3 3 12 13 
3 14 6 12 
3 18 10 19 
3 18 19 4 
3 18 4 5 
3 18 5 2 
3 18 2 7 
3 18 7 10 
3 20 19 10 
3 20 10 15 
3 20 15 14 
3 20 14 11 
3 20 11 9 
3 20 9 17 
3 20 17 16 
3 20 16 8 
3 20 8 19 
3 21 19 8 
3 21 8 3 
3 21 3 13 
3 21 13 1 
3 21 1 0 
3 21 0 4 
3 21 4 19 
CELL_TYPES 40
5
5
5
5
5
5
5
5
5
5
5
5
5
5
5
5
5
5
5
5
5
5
5
5
5
5
5
5
5
5
5
5
5
5
5
5
5
5
5
5
CELL_DATA 40
SCALARS patches float
LOOKUP_TABLE default
0
0
0
0
0
0
0
0
0
0
0
0
0
0
0
0
0
0
1
1
1
1
1
1
2
2
2
2
2
2
2
2
2
3
3
3
3
3
3
3
