# vtk DataFile Version 3.1 
for LSEConsole
ASCII
DATASET UNSTRUCTURED_GRID
POINTS 22 FLOAT
0.133145	0.0384312	0.0102553
0.140652	0.018143	0.015199
0.132101	0.0230396	0.00136
0.16524	-0.0015035	0.01899
0.127396	0.05397	0.006469
0.130753	0.0319026	0.002824
0.145027	9.3e-05	0.005112
0.134322	0.0084384	-0.0010517
0.180122	-0.007927	0.02085
0.153215	-0.0099936	0.0050439
0.137312	-0.011215	-0.004298
0.148804	-0.0103324	0.0024525
0.150503	-0.000985	0.009137
0.149366	0.005348	0.017006
0.14656	-0.0105047	0.0011344
0.14564	-0.0105754	0.000594163
0.171452	-0.0085929	0.0157568
0.165568	-0.0090448	0.0123003
0.13668	0.019385	0.006149
0.145333	0.0154	0.016276
0.154256	-0.00124733	0.0109427
0.15095	0.020481	0.0145317
CELLS 40 160
3 0 1 2 
3 0 2 5 
3 0 5 4 
3 1 6 7 
3 1 7 2 
3 3 8 16 
3 3 16 17 
3 3 17 9 
3 9 12 3 
3 6 15 10 
3 6 10 7 
3 1 13 6 
3 11 14 12 
3 9 11 12 
3 6 14 15 
3 12 6 13 
3 3 12 13 
3 14 6 12 
3 18 10 19 
3 18 19 4 
3 18 4 5 
3 18 5 2 
3 18 2 7 
3 18 7 10 
3 20 19 10 
3 20 10 15 
3 20 15 14 
3 20 14 11 
3 20 11 9 
3 20 9 17 
3 20 17 16 
3 20 16 8 
3 20 8 19 
3 21 19 8 
3 21 8 3 
3 21 3 13 
3 21 13 1 
3 21 1 0 
3 21 0 4 
3 21 4 19 
CELL_TYPES 40
5
5
5
5
5
5
5
5
5
5
5
5
5
5
5
5
5
5
5
5
5
5
5
5
5
5
5
5
5
5
5
5
5
5
5
5
5
5
5
5
CELL_DATA 40
SCALARS patches float
LOOKUP_TABLE default
0
0
0
0
0
0
0
0
0
0
0
0
0
0
0
0
0
0
1
1
1
1
1
1
2
2
2
2
2
2
2
2
2
3
3
3
3
3
3
3
