# vtk DataFile Version 3.1 
for LSEConsole
ASCII
DATASET UNSTRUCTURED_GRID
POINTS 24 FLOAT
12	12	-2
12.7804	11.9231	-2
13.5307	11.6955	-2
14.2223	11.3259	-2
14.8284	10.8284	-2
15.3259	10.2223	-2
15.6955	9.53073	-2
15.9231	8.78036	-2
13.0261	11.1462	-2
14.0546	10.5762	-2
14.5823	10.0562	-2
15.0453	9.62698	-2
12.3386	11.2587	-2
13.6329	11.044	-2
15.1661	9.05909	-2
12.6577	10.5601	-2
13.7216	9.59093	-2
12.9748	9.8659	-2
13.3505	10.4959	-2
14.4856	9.30963	-2
12.8486	10.6633	-1.69897
13.5711	10.1241	-1.09692
14.1563	9.59012	-1.69897
13.8314	10.3015	-1.69897
CELLS 44 176
3 18 17 15 
3 9 3 4 
3 10 9 4 
3 11 10 5 
3 12 1 8 
3 18 9 16 
3 8 1 2 
3 13 2 3 
3 10 4 5 
3 11 5 6 
3 14 6 7 
3 12 0 1 
3 15 12 8 
3 13 8 2 
3 13 3 9 
3 14 11 6 
3 18 8 13 
3 16 9 10 
3 19 10 11 
3 18 15 8 
3 18 13 9 
3 18 16 17 
3 19 16 10 
3 19 11 14 
3 20 17 21 
3 20 21 0 
3 20 0 12 
3 20 12 15 
3 20 15 17 
3 22 21 17 
3 22 17 16 
3 22 16 19 
3 22 19 14 
3 22 14 7 
3 22 7 21 
3 23 21 7 
3 23 7 6 
3 23 6 5 
3 23 5 4 
3 23 4 3 
3 23 3 2 
3 23 2 1 
3 23 1 0 
3 23 0 21 
CELL_TYPES 44
5
5
5
5
5
5
5
5
5
5
5
5
5
5
5
5
5
5
5
5
5
5
5
5
5
5
5
5
5
5
5
5
5
5
5
5
5
5
5
5
5
5
5
5
CELL_DATA 44
SCALARS patches float
LOOKUP_TABLE default
0
0
0
0
0
0
0
0
0
0
0
0
0
0
0
0
0
0
0
0
0
0
0
0
1
1
1
1
1
2
2
2
2
2
2
3
3
3
3
3
3
3
3
3
