# vtk DataFile Version 3.1 
for LSEConsole
ASCII
DATASET UNSTRUCTURED_GRID
POINTS 23 FLOAT
12	12	2
12.7804	11.9231	2
13.5307	11.6955	2
14.2223	11.3259	2
14.8284	10.8284	2
15.3259	10.2223	2
15.6955	9.53073	2
15.9231	8.78036	2
12.9584	11.2756	2
14.1258	10.4775	2
14.8232	9.17897	2
15.2962	9.00756	2
12.3728	11.3042	2
14.6707	10.1255	2
13.4998	10.9111	2
12.7622	10.5775	2
14.0415	9.46226	2
13.367	9.70671	2
13.1955	9.76888	2
12.9534	10.6173	1.7
13.6647	10.0829	1.1
13.8626	10.2878	1.7
14.2611	9.54406	1.7
CELLS 42 168
3 14 2 8 
3 17 14 15 
3 11 6 10 
3 15 8 12 
3 13 4 9 
3 16 13 9 
3 12 8 1 
3 8 2 1 
3 12 1 0 
3 9 4 3 
3 14 9 3 
3 10 6 5 
3 13 10 5 
3 11 7 6 
3 13 5 4 
3 17 16 9 
3 14 3 2 
3 15 14 8 
3 16 10 13 
3 17 9 14 
3 18 17 15 
3 19 0 20 
3 19 20 18 
3 19 18 15 
3 19 15 12 
3 19 12 0 
3 21 20 0 
3 21 0 1 
3 21 1 2 
3 21 2 3 
3 21 3 4 
3 21 4 5 
3 21 5 6 
3 21 6 7 
3 21 7 20 
3 22 20 7 
3 22 7 11 
3 22 11 10 
3 22 10 16 
3 22 16 17 
3 22 17 18 
3 22 18 20 
CELL_TYPES 42
5
5
5
5
5
5
5
5
5
5
5
5
5
5
5
5
5
5
5
5
5
5
5
5
5
5
5
5
5
5
5
5
5
5
5
5
5
5
5
5
5
5
CELL_DATA 42
SCALARS patches float
LOOKUP_TABLE default
0
0
0
0
0
0
0
0
0
0
0
0
0
0
0
0
0
0
0
0
0
1
1
1
1
1
2
2
2
2
2
2
2
2
2
3
3
3
3
3
3
3
