# vtk DataFile Version 3.1 
for LSEConsole
ASCII
DATASET UNSTRUCTURED_GRID
POINTS 24 FLOAT
8	0	0
6.85707608	0	1.14292392
5.71432494	0	2.28567506
4.57142244	0	3.42857756
3.42856757	0	4.57143243
2.28571271	0	5.71428729
1.14284877	0	6.85715123
0	0	8
4.4167842	0	1.12769689
2.74578647	0	2.99110119
1.68604682	0	4.16702142
1.00701325	0	5.35234666
5.22113228	0	0
3.94813561	0	2.23563152
0	0	5.94592722
2.60232605	0	0
0	0	2.0263919
0	0	0
2.33590038	0	1.38891969
0	0	4.09945221
2.66660967	2.66651505	0
0	8	0
0	2.66665102	2.66658936
1.51061524	4.65774703	1.62750013
CELLS 44 176
3 18 17 15 
3 9 3 4 
3 10 9 4 
3 11 10 5 
3 12 1 8 
3 18 9 16 
3 8 1 2 
3 13 2 3 
3 10 4 5 
3 11 5 6 
3 14 6 7 
3 12 0 1 
3 15 12 8 
3 13 8 2 
3 13 3 9 
3 14 11 6 
3 18 8 13 
3 16 9 10 
3 19 10 11 
3 18 15 8 
3 18 13 9 
3 18 16 17 
3 19 16 10 
3 19 11 14 
3 20 17 21 
3 20 21 0 
3 20 0 12 
3 20 12 15 
3 20 15 17 
3 22 21 17 
3 22 17 16 
3 22 16 19 
3 22 19 14 
3 22 14 7 
3 22 7 21 
3 23 21 7 
3 23 7 6 
3 23 6 5 
3 23 5 4 
3 23 4 3 
3 23 3 2 
3 23 2 1 
3 23 1 0 
3 23 0 21 
CELL_TYPES 44
5
5
5
5
5
5
5
5
5
5
5
5
5
5
5
5
5
5
5
5
5
5
5
5
5
5
5
5
5
5
5
5
5
5
5
5
5
5
5
5
5
5
5
5
CELL_DATA 44
SCALARS patches float
LOOKUP_TABLE default
0
0
0
0
0
0
0
0
0
0
0
0
0
0
0
0
0
0
0
0
0
0
0
0
1
1
1
1
1
2
2
2
2
2
2
3
3
3
3
3
3
3
3
3
