# vtk DataFile Version 3.1 
for LSEConsole
ASCII
DATASET UNSTRUCTURED_GRID
POINTS 23 FLOAT
0	0	0
0	0	1.14292392
0	0	2.28567506
0	0	3.42857756
0	0	4.57143243
0	0	5.71428729
0	0	6.85715123
0	0	8
2.04544368	0	0.996844208
2.49127287	0	2.96059021
3.22597777	0	4.77402223
1.83868862	0	6.16131138
2.49484539	0	0
1.921949	0	4.20103087
2.48026326	0	1.80408094
5.10055114	0	0
5.51868095	0	2.48131905
7.49697864	0	0.503021365
8	0	0
2.66643476	2.66678983	0
0	8	0
0	4.88380295	1.57337207
2.66661386	2.66674051	2.66664564
CELLS 42 168
3 14 2 8 
3 17 14 15 
3 11 6 10 
3 15 8 12 
3 13 4 9 
3 16 13 9 
3 12 8 1 
3 8 2 1 
3 12 1 0 
3 9 4 3 
3 14 9 3 
3 10 6 5 
3 13 10 5 
3 11 7 6 
3 13 5 4 
3 17 16 9 
3 14 3 2 
3 15 14 8 
3 16 10 13 
3 17 9 14 
3 18 17 15 
3 19 0 20 
3 19 20 18 
3 19 18 15 
3 19 15 12 
3 19 12 0 
3 21 20 0 
3 21 0 1 
3 21 1 2 
3 21 2 3 
3 21 3 4 
3 21 4 5 
3 21 5 6 
3 21 6 7 
3 21 7 20 
3 22 20 7 
3 22 7 11 
3 22 11 10 
3 22 10 16 
3 22 16 17 
3 22 17 18 
3 22 18 20 
CELL_TYPES 42
5
5
5
5
5
5
5
5
5
5
5
5
5
5
5
5
5
5
5
5
5
5
5
5
5
5
5
5
5
5
5
5
5
5
5
5
5
5
5
5
5
5
CELL_DATA 42
SCALARS patches float
LOOKUP_TABLE default
0
0
0
0
0
0
0
0
0
0
0
0
0
0
0
0
0
0
0
0
0
1
1
1
1
1
2
2
2
2
2
2
2
2
2
3
3
3
3
3
3
3
