# vtk DataFile Version 3.1 
for LSEConsole
ASCII
DATASET UNSTRUCTURED_GRID
POINTS 14 FLOAT
-12.7288	-27.8723	90
-20.0658	-23.1571	90
-25.7771	-16.5659	90
-29.4001	-8.63265	90
-33.2381	-9.75957	86
-29.1421	-18.7285	86
-22.6852	-26.1801	86
-14.3905	-31.5108	86
-13.6773	-21.276	90
-15.5198	-8.46077	90
-23.4894	-11.7792	86.3333
-21.7104	-17.1174	83
-17.2069	-19.0297	86.3333
-23.113	-19.4626	85
CELLS 24 96
3 7 0 1 
3 1 6 7 
3 6 1 2 
3 2 5 6 
3 5 2 3 
3 3 4 5 
3 8 1 0 
3 3 2 9 
3 9 2 1 
3 9 1 8 
3 10 9 11 
3 10 11 4 
3 10 4 3 
3 10 3 9 
3 12 11 9 
3 12 9 8 
3 12 8 0 
3 12 0 7 
3 12 7 11 
3 13 11 7 
3 13 7 6 
3 13 6 5 
3 13 5 4 
3 13 4 11 
CELL_TYPES 24
5
5
5
5
5
5
5
5
5
5
5
5
5
5
5
5
5
5
5
5
5
5
5
5
CELL_DATA 24
SCALARS patches float
LOOKUP_TABLE default
0
0
0
0
0
0
0
0
0
0
1
1
1
1
2
2
2
2
2
3
3
3
3
3
