# vtk DataFile Version 3.1 
for LSEConsole
ASCII
DATASET UNSTRUCTURED_GRID
POINTS 14 FLOAT
0	0	6.20900789
1.86932577	0	4.3164708
3.87173167	0	2.12580188
5.68377393	0	0
8	0	0
5.33332633	0	2.66667367
2.66666667	0	5.33333333
0	0	8
0	0	4.09909954
0	0	0
2.36058674	3.22144132	0
0	8	0
0	3.5373728	2.22628646
1.60970955	4.60698391	1.78330654
CELLS 24 96
3 7 0 1 
3 1 6 7 
3 6 1 2 
3 2 5 6 
3 5 2 3 
3 3 4 5 
3 8 1 0 
3 3 2 9 
3 9 2 1 
3 9 1 8 
3 10 9 11 
3 10 11 4 
3 10 4 3 
3 10 3 9 
3 12 11 9 
3 12 9 8 
3 12 8 0 
3 12 0 7 
3 12 7 11 
3 13 11 7 
3 13 7 6 
3 13 6 5 
3 13 5 4 
3 13 4 11 
CELL_TYPES 24
5
5
5
5
5
5
5
5
5
5
5
5
5
5
5
5
5
5
5
5
5
5
5
5
CELL_DATA 24
SCALARS patches float
LOOKUP_TABLE default
0
0
0
0
0
0
0
0
0
0
1
1
1
1
2
2
2
2
2
3
3
3
3
3
